LAMMPS (29 Oct 2020)
print " "
 
print "### Simulation de milieux granulaire ###"
### Simulation de milieux granulaire ###
print " "
 
print "## Initialisation -------------------------------------------------------------------------------------------- ##"
## Initialisation -------------------------------------------------------------------------------------------- ##
print " "
 
    include in.floes_initialisation_v1.lmp # initialise la simulation
## Paramètre de simulations -------------------------------------------------------------------------------------------------- ##
    # fichier partagé #
    # paramètres de simulation
	dimension    2 # Probleme 2D
    boundary     p fm p # Condition aux limites, f condition fixe, p condition périodique

	atom_style   sphere 0 # Les particules seront des sphères (besoin de definir diamètre et masse pour chaque particule)
	newton       off # off = pas d'action/réaction
	comm_modify  vel yes

    # géométrie
	region boite block 0 100 0 100 -0.5 0.5 units box # Crée la région "boite" 100x100x1
	create_box   2 boite # Crée la "boite" avec 3 type de grains
Created orthogonal box = (0.0000000 0.0000000 -0.5) to (100.00000 100.00000 0.5)
  1 by 1 by 1 MPI processor grid

	neighbor     0.2 bin # Fréquence de mise a jour de la liste des particules
	neigh_modify delay 0 #Fréquence de mise a jour de la liste des particules tout les 0 pas

    # région de l'échantillon
    region limite_sup    block INF INF 93 INF INF INF # crée une région pour la limite supérieur échantillon (cf : in.floes_shearing.lmp)
    region limite_inf    block INF INF INF 7 INF INF # crée une région pour la limite inferieur échantillon (cf : in.floes_shearing.lmp)
    region zone_de_chute block 0 100 89 100 -0.5 0.5 units box # crée une région depuis laquelle les grains vont tomber

    # Variable du problème
    variable nbr_grain equal 809
    variable dmax equal 4.0
    variable dmin equal 3.0

## Fin initilisation----------------------------------------------------------------------------------------------------------- ##

print " "
 
print "## Depot des grains ------------------------------------------------------------------------------------------ ##"
## Depot des grains ------------------------------------------------------------------------------------------ ##
print " "
 
    include     in.floes_pour_v1.lmp # dépose des sphères dans la boite de simulation
### Depot de matériaux granulaire en 2D ###

## Definition interaction entre particules ------------------------------------------------------------------------------------ ##
# arg : contact normal, contact tangentiel, amortissement normal, amortissement tangentiel, coefficient de charge, 0 pour exclure gamma_t
	pair_style  gran/hooke/history 1E8 0.0 1E3 0.0 0.5 0 # contact Hookien entre particule sans friction
	pair_coeff	* *

## Simulation de la chute des grains ------------------------------------------------------------------------------------------ ##

    fix	gravite all gravity 1.0 spherical 0.0 -180.0 # ajoute la gravitée à la simulation

    # Ajout de reaction normal sur la paroi paroie_y et plan_y
    fix	        paroiy all wall/gran hooke/history 1E8 0.0 1E4 0.0 0.5 0                 yplane 0 NULL

    timestep    1E-4 # pas de temps de la simulation

    fix         calcul_v_m all nve/sphere disc # Calcule vélocité et moment angulaire de chaque sphère

# Fait tomber N grains un par un, vol specifie la fraction volumique (max 0.6), one d unique / range d dans un intervale
    fix         depot all pour 860 1 100 vol 0.5 10                 diam poly 2 3.0 0.5 4.0 0.5 region zone_de_chute
Particle insertion: 56 every 46904 steps, 860 by step 703561

    fix         2Dsimu all enforce2d # Assure une simulation 2D en annulantles forces/vitesse dans la direction z

## Commande d'affichage -------------------------------------------------------------------------------------------------------- ##

    #dump		depot_img all image 500000 depot.*.jpg type type     #            zoom 1.6 adiam 4.0
    #dump_modify	depot_img pad 5

    #dump        depot_grain all movie 500 depot_grain.avi type type     #            zoom 1.6 adiam 4.0 # crée une vidéo du dépot des grains
    #dump_modify depot_grain pad 5

## Fin du dépot des particules -------------------------------------------------------------------------------------------------- ##

    run	        1500000 # 1 500 000 pas de simulations effectués
Neighbor list info ...
  update every 1 steps, delay 0 steps, check yes
  max neighbors/atom: 2000, page size: 100000
  master list distance cutoff = 4.2
  ghost atom cutoff = 4.2
  binsize = 2.1, bins = 48 48 1
  1 neighbor lists, perpetual/occasional/extra = 1 0 0
  (1) pair gran/hooke/history, perpetual
      attributes: half, newton off, size, history
      pair build: half/size/bin/newtoff
      stencil: half/bin/2d/newtoff
      bin: standard
Per MPI rank memory allocation (min/avg/max) = 5.765 | 5.765 | 5.765 Mbytes
Step Temp E_pair E_mol TotEng Press Volume 
       0            0            0            0            0            0        10000 
 1500000            0            0            0            0    34.583666        10000 
Loop time of 318.8 on 1 procs for 1500000 steps with 829 atoms

Performance: 40652.484 tau/day, 4705.149 timesteps/s
99.9% CPU use with 1 MPI tasks x no OpenMP threads

MPI task timing breakdown:
Section |  min time  |  avg time  |  max time  |%varavg| %total
---------------------------------------------------------------
Pair    | 189.8      | 189.8      | 189.8      |   0.0 | 59.54
Neigh   | 1.9398     | 1.9398     | 1.9398     |   0.0 |  0.61
Comm    | 3.8442     | 3.8442     | 3.8442     |   0.0 |  1.21
Output  | 6.2943e-05 | 6.2943e-05 | 6.2943e-05 |   0.0 |  0.00
Modify  | 113.8      | 113.8      | 113.8      |   0.0 | 35.69
Other   |            | 9.417      |            |       |  2.95

Nlocal:        829.000 ave         829 max         829 min
Histogram: 1 0 0 0 0 0 0 0 0 0
Nghost:        73.0000 ave          73 max          73 min
Histogram: 1 0 0 0 0 0 0 0 0 0
Neighs:        1947.00 ave        1947 max        1947 min
Histogram: 1 0 0 0 0 0 0 0 0 0

Total # of neighbors = 1947
Ave neighs/atom = 2.3486128
Neighbor list builds = 9915
Dangerous builds = 0

#fin du programme

    set         group all density/disc 1.0 # densité des particules = 1 (longueur^3)
Setting atom values ...
  829 settings made for density/disc

print " "
 
print "## Compression echantillon ----------------------------------------------------------------------------------- ##"
## Compression echantillon ----------------------------------------------------------------------------------- ##
print " "
 
# Unfix - retire les propriétés fixés dans le module précedent pour en fixer de nouvelles dans le module suivant
    unfix       2Dsimu
    unfix       paroiy # enlève les propriétés mécanique des paroies
    unfix       depot # annule le dépot des grains dmin
    unfix       gravite # annule l'effet de la gravité
    unfix       calcul_v_m # annule l'intégration temporel des grains

# Undump - arrête les affichages
    #undump      depot_grain

# Compression de l'assemblage granulaire
    include     in.floes_compression_force_v1.lmp # compression uniaxial de l'échantillon par application de force
### Compression unixial de matériaux granulaires ###

## Modification des conditions aux limites ------------------------------------------------------------------------------------ ##

    change_box  all boundary p p p units box # change les conditions limites pour comprimer l'échantillon avec un barostat
Changing box ...
    set         group all image NULL NULL NULL  # repositionne les grains avec les nouvelles conditions limites
Setting atom values ...
  829 settings made for image

## Fix pour compression unixial ----------------------------------------------------------------------------------------------- ##

    # Début de simulation
    timestep    1E-4 # pas de temps de la simulation

    fix         temp_cste all temp/berendsen 0.0 0.0 200 # définie une température constante durant la simulation
    fix         calcul_v_m all nve/sphere disc # calcul vélocité et moment angulaire de chaque sphère

    fix         sur_amortissement all viscous 1.0 # ajout d'une force visqueuse dans l'échantillon

    fix         comp_biax all press/berendsen                 iso 5E3 5E3 500 # compression biaxiale échantillon via un barostat p = 50.0

    fix         2Dsimu all enforce2d # Assure une simulation 2D en annulant les forces/vitesse dans la direction z

## Calculs -------------------------------------------------------------------------------------------------------------------- ##

    #Calcul des contraintes dans les floes
    compute     sigma_comp all stress/atom NULL virial # calcul les contraintes dans les floes
    compute     moy_sigma_comp all reduce sum c_sigma_comp[*] # somme le tenseur de contrainte sur l'ensemble des floes

    # Calcul des voisins
    compute      voisin all contact/atom # calcul les voisins situé à d = dmin du centre d'un grain
    compute      moy_voisin all reduce ave c_voisin # moyenne du nombres de voisins

    # Déplacement des grains et des bords rigides
    compute      u_comp all displace/atom
    compute      u_moy_comp all reduce ave c_u_comp[*][*]

## Affichage ------------------------------------------------------------------------------------------------------------------- ##

    # affichage : pas_de_temps/température_échantillon/ID_grain/nbre_voisin/nrj_total_échantillon/pression_appliquée/contrainte xx,xy,yy
    thermo      5000 # affichage tout les 50 000 pas de temps
    thermo_style custom step atoms c_moy_voisin                  density press ke c_u_moy_comp[1] c_u_moy_comp[2]                  lx ly                  c_moy_sigma_comp[1] c_moy_sigma_comp[2] c_moy_sigma_comp[4]
    #dump		 compression_img all image 100000 compression.*.jpg type type     #             zoom 1.6 adiam 4.0
    #dump_modify	 compression_img pad 5

	#dump         compression all movie 500 compression.avi type type     #             zoom 1.6 adiam 4.0 # crée une vidéo de la compression
	#dump_modify  compression pad 5

## Fin de la compression ------------------------------------------------------------------------------------------------------ ##

	run	        500000 #  500 000  pas de simulations effectués
Neighbor list info ...
  update every 1 steps, delay 0 steps, check yes
  max neighbors/atom: 2000, page size: 100000
  master list distance cutoff = 4.2
  ghost atom cutoff = 4.2
  binsize = 2.1, bins = 48 48 1
  2 neighbor lists, perpetual/occasional/extra = 1 1 0
  (1) pair gran/hooke/history, perpetual
      attributes: half, newton off, size, history
      pair build: half/size/bin/newtoff
      stencil: half/bin/2d/newtoff
      bin: standard
  (2) compute contact/atom, occasional
      attributes: half, newton off, size
      pair build: half/size/bin/newtoff
      stencil: half/bin/2d/newtoff
      bin: standard
Per MPI rank memory allocation (min/avg/max) = 10.99 | 10.99 | 10.99 Mbytes
Step Atoms c_moy_voisin Density Press KinEng c_u_moy_comp[1] c_u_moy_comp[2] Lx Ly c_moy_sigma_comp[1] c_moy_sigma_comp[2] c_moy_sigma_comp[4] 
 1500000      829    2.2002413    0.8124944    34.667618  0.010724403            0            0          100          100    -398.8776   -437.47291   0.60127101 
 1505000      829    2.9662244   0.84125347    4908.9771    24.982219 -0.0038683962  0.036304193    98.275838    98.275838   -58001.669   -56330.971    1553.4065 
 1510000      829    3.2472859   0.84259289    4997.1685    4.1983918 -0.0031111351  0.040043934    98.197695    98.197695   -59647.447   -56596.588    1953.4065 
 1515000      829    3.7756333   0.84266897    5000.4848  0.049642218 -0.0027219749  0.041004896    98.193262    98.193262   -59203.345   -57115.635    653.97924 
 1520000      829    3.8287093   0.84266839    5000.1047  0.006562891 -0.002687006   0.04164189    98.193296    98.193296   -59041.288   -57269.016    401.40498 
 1525000      829    3.8287093   0.84266839    5000.0021  0.002313001 -0.0026079467   0.04248317    98.193296    98.193296   -59055.251   -57252.674    542.31621 
 1530000      829    3.8431846   0.84266859    4999.9643 0.0012690361 -0.0024905006   0.04330125    98.193284    98.193284   -59036.752   -57270.267    486.28982 
 1535000      829    3.8383595   0.84266856    5000.0078 0.00071076841 -0.0023630561  0.044084243    98.193286    98.193286   -59024.994   -57283.042     447.0727 
 1540000      829    3.8383595   0.84266854    4999.9768 0.00051637495 -0.0022376311  0.044819204    98.193287    98.193287    -58995.66   -57311.661    455.14973 
 1545000      829    3.8383595   0.84266853    4999.9977 0.00038358903 -0.002125701  0.045507135    98.193288    98.193288   -58993.314   -57314.493    475.89467 
 1550000      829    3.8359469   0.84266851    5000.0009 0.00029069712 -0.0020147331  0.046137282    98.193289    98.193289   -58995.505   -57312.379     471.6888 
 1555000      829    3.8383595   0.84266855    4999.9911 0.00021644955 -0.0019114419  0.046726209    98.193287    98.193287   -58982.023   -57325.629    469.41572 
 1560000      829     3.840772   0.84266851    4999.9946 0.00019416179 -0.0018238198  0.047278697    98.193289    98.193289   -59004.777    -57302.96    468.14863 
 1565000      829     3.840772   0.84266855    5000.0191 0.00016146917 -0.0017390157  0.047802061    98.193286    98.193286    -59000.33   -57307.972    468.45485 
 1570000      829     3.840772   0.84266853    5000.0029 9.6640316e-05 -0.0016618312  0.048285264    98.193287    98.193287   -59002.597   -57305.333    453.55912 
 1575000      829     3.840772   0.84266855    5000.0079 8.6102802e-05 -0.0015903989  0.048743333    98.193286    98.193286   -59006.146   -57301.898    463.01191 
 1580000      829     3.840772   0.84266853    4999.9951 7.0439732e-05 -0.0015189285  0.049172319    98.193287    98.193287   -59011.561   -57296.186    464.86711 
 1585000      829     3.840772   0.84266854    5000.0037 4.9573874e-05 -0.0014431433  0.049580569    98.193287    98.193287   -59012.591   -57295.354    459.34256 
 1590000      829     3.840772   0.84266854    4999.9945 3.8272055e-05 -0.0013704212   0.04996531    98.193287    98.193287   -59011.269   -57296.463    460.29635 
 1595000      829     3.840772   0.84266853    5000.0003 2.8970312e-05 -0.0012982851  0.050331957    98.193287    98.193287    -59014.87   -57292.997     464.1559 
 1600000      829     3.840772   0.84266855    4999.9962 2.6871208e-05 -0.0012267501  0.050679814    98.193287    98.193287   -59008.192    -57299.58    460.61255 
 1605000      829     3.840772   0.84266853    4999.9974 2.3824309e-05 -0.0011588086  0.051010812    98.193288    98.193288   -59008.597   -57299.205    459.52009 
 1610000      829     3.840772   0.84266854    4999.9979 2.0251843e-05 -0.0010947151  0.051324631    98.193287    98.193287   -59005.771    -57302.04     464.3713 
 1615000      829     3.840772   0.84266853    4999.9972 1.9042582e-05 -0.0010341026  0.051622434    98.193287    98.193287   -59004.589   -57303.208    459.84671 
 1620000      829     3.840772   0.84266854    5000.0007 1.5991835e-05 -0.00097628573  0.051905263    98.193287    98.193287   -59002.121   -57305.756    460.11308 
 1625000      829     3.840772   0.84266853    4999.9965 1.3513769e-05 -0.00092145606  0.052174064    98.193288    98.193288   -59004.004   -57303.778    463.84233 
 1630000      829     3.840772   0.84266853     5000.002 9.6323157e-06 -0.00086990348  0.052426532    98.193287    98.193287    -59001.96   -57305.947    461.95087 
 1635000      829     3.840772   0.84266853    4999.9973 7.1030913e-06 -0.00082191494  0.052665485    98.193287    98.193287   -59001.004   -57306.794    459.42793 
 1640000      829     3.840772   0.84266853    5000.0013 6.0832201e-06 -0.00077619904  0.052893678    98.193288    98.193288   -59003.666   -57304.227    461.86473 
 1645000      829     3.840772   0.84266853         5000 5.749383e-06 -0.00073173639  0.053111047    98.193287    98.193287   -59003.317   -57304.543     461.5726 
 1650000      829     3.840772   0.84266853    5000.0015 4.7641986e-06 -0.00068928038  0.053317855    98.193288    98.193288   -59004.137    -57303.76    458.66744 
 1655000      829     3.840772   0.84266853    5000.0007 4.7247238e-06 -0.00064917626  0.053515427    98.193287    98.193287   -59005.281   -57302.596    462.59513 
 1660000      829     3.840772   0.84266853    5000.0011 4.6832687e-06 -0.00061044593   0.05370324    98.193288    98.193288   -59007.559   -57300.327    461.85398 
 1665000      829    3.8431846   0.84266854    5000.0016 3.9452547e-06 -0.00057300838  0.053881068    98.193287    98.193287   -59005.674   -57302.225    459.79955 
 1670000      829     3.840772   0.84266853    5000.0005 3.8218174e-06 -0.00053741873  0.054049966    98.193287    98.193287   -59008.253   -57299.619    462.21909 
 1675000      829     3.840772   0.84266854    5000.0025 3.2412323e-06 -0.00050202624  0.054209393    98.193287    98.193287   -59007.375   -57300.544     462.3427 
 1680000      829     3.840772   0.84266854    4999.9999 2.4776459e-06 -0.0004681212  0.054360716    98.193287    98.193287     -59007.2   -57300.659    460.30119 
 1685000      829     3.840772   0.84266854    5000.0011 2.293161e-06 -0.00043632423  0.054504612    98.193287    98.193287   -59007.621   -57300.265    461.90199 
 1690000      829     3.840772   0.84266854    4999.9999 1.6599704e-06 -0.00040567507  0.054640993    98.193287    98.193287   -59007.265   -57300.593    462.76311 
 1695000      829     3.840772   0.84266854    5000.0006 1.2772844e-06 -0.00037614513  0.054770405    98.193287    98.193287   -59006.399   -57301.476       460.39 
 1700000      829     3.840772   0.84266854    4999.9995 1.4079351e-06 -0.00034823552   0.05489355    98.193287    98.193287   -59005.486   -57302.362    461.83857 
 1705000      829     3.840772   0.84266853    4999.9999 1.1512598e-06 -0.00032165595  0.055010532    98.193287    98.193287   -59006.778   -57301.081    462.91887 
 1710000      829     3.840772   0.84266854    4999.9999 1.2426791e-06 -0.00029576023  0.055121132    98.193287    98.193287   -59004.522   -57303.336     460.8297 
 1715000      829     3.840772   0.84266853     4999.999 1.4032536e-06 -0.00027131321  0.055226447    98.193287    98.193287   -59005.492   -57302.346    461.37641 
 1720000      829     3.840772   0.84266853    4999.9999 1.1817389e-06 -0.00024810427  0.055326466    98.193287    98.193287   -59005.453   -57302.406    462.70046 
 1725000      829     3.840772   0.84266853     4999.999 1.1670258e-06 -0.00022576693  0.055421376    98.193287    98.193287   -59004.868    -57302.97    460.92242 
 1730000      829     3.840772   0.84266853    4999.9998 1.0161383e-06 -0.0002049439  0.055511628    98.193287    98.193287   -59005.068   -57302.788    461.18293 
 1735000      829     3.840772   0.84266853    4999.9992 6.6112723e-07 -0.00018530861  0.055597355    98.193287    98.193287   -59005.312    -57302.53     462.2821 
 1740000      829     3.840772   0.84266853    5000.0002 6.1652137e-07 -0.0001662981  0.055678716    98.193287    98.193287   -59005.289   -57302.577    461.01915 
 1745000      829     3.840772   0.84266853    4999.9995 4.5536493e-07 -0.00014838765  0.055755959    98.193287    98.193287   -59004.699    -57303.15    460.84222 
 1750000      829     3.840772   0.84266853    5000.0001 3.332622e-07 -0.00013153062  0.055829447    98.193288    98.193288   -59005.687   -57302.175    462.08778 
 1755000      829     3.840772   0.84266853    5000.0002 4.4335306e-07 -0.00011524049  0.055899089    98.193287    98.193287   -59004.864   -57303.002    461.25087 
 1760000      829     3.840772   0.84266853    4999.9999 4.0369278e-07 -9.9781087e-05  0.055965303    98.193287    98.193287   -59004.875   -57302.985    460.67214 
 1765000      829     3.840772   0.84266853    5000.0004 4.0935195e-07 -8.5227276e-05  0.056028249    98.193287    98.193287   -59005.433   -57302.437    462.23595 
 1770000      829     3.840772   0.84266853    5000.0002 4.9346954e-07 -7.1202381e-05  0.056087967    98.193287    98.193287   -59005.155   -57302.709      461.436 
 1775000      829     3.840772   0.84266853    5000.0005 3.8948493e-07 -5.7854979e-05  0.056144674    98.193287    98.193287       -59005   -57302.873    460.96447 
 1780000      829     3.840772   0.84266853    4999.9999 3.5900509e-07 -4.5346985e-05   0.05619864    98.193287    98.193287   -59005.578    -57302.28    462.09314 
 1785000      829     3.840772   0.84266853    5000.0005 3.3150752e-07 -3.3304896e-05  0.056249862    98.193287    98.193287   -59005.697   -57302.176    461.74158 
 1790000      829     3.840772   0.84266854         5000 2.0322807e-07 -2.1783402e-05  0.056298452    98.193287    98.193287    -59005.55   -57302.311    461.13535 
 1795000      829     3.840772   0.84266853    5000.0001 1.9120325e-07 -1.0975028e-05  0.056344709    98.193287    98.193287   -59006.128   -57301.734    461.88189 
 1800000      829     3.840772   0.84266854    5000.0001 1.6887411e-07 -5.8842494e-07  0.056388575    98.193287    98.193287   -59006.227   -57301.636    461.91946 
 1805000      829     3.840772   0.84266854    4999.9999 1.1366464e-07 9.3570484e-06  0.056430222    98.193287    98.193287    -59006.09   -57301.768    460.99497 
 1810000      829     3.840772   0.84266853    4999.9999 1.5692123e-07 1.8663698e-05  0.056469835    98.193287    98.193287   -59006.363   -57301.496    461.77236 
 1815000      829     3.840772   0.84266853    4999.9998 1.4837603e-07 2.7565061e-05  0.056507509    98.193287    98.193287   -59006.521   -57301.336     461.7991 
 1820000      829     3.840772   0.84266853         5000 1.3075282e-07 3.6128414e-05  0.056543233    98.193287    98.193287   -59005.964   -57301.897    460.98012 
 1825000      829     3.840772   0.84266853    4999.9996 1.6424269e-07 4.4148794e-05  0.056577233    98.193287    98.193287   -59006.232   -57301.621    461.55655 
 1830000      829     3.840772   0.84266853         5000 1.331018e-07 5.1801276e-05  0.056609507    98.193287    98.193287    -59006.06   -57301.802    461.73142 
 1835000      829     3.840772   0.84266853    4999.9999 1.1507726e-07 5.9179468e-05  0.056640108    98.193287    98.193287   -59005.565   -57302.293    461.08679 
 1840000      829     3.840772   0.84266853    4999.9999 1.2073034e-07 6.6096037e-05  0.056669229    98.193287    98.193287   -59005.542   -57302.316    461.40272 
 1845000      829     3.840772   0.84266853    4999.9999 7.7455963e-08 7.2676741e-05  0.056696881    98.193287    98.193287   -59005.436   -57302.423    461.82333 
 1850000      829     3.840772   0.84266853         5000 6.7744412e-08 7.9031146e-05  0.056723105    98.193287    98.193287   -59005.152   -57302.709    461.23699 
 1855000      829     3.840772   0.84266853         5000 6.6202877e-08 8.4993926e-05   0.05674804    98.193287    98.193287   -59004.939   -57302.922    461.41536 
 1860000      829     3.840772   0.84266853         5000 3.8596085e-08 9.0636465e-05  0.056771747    98.193287    98.193287   -59005.231    -57302.63    461.90083 
 1865000      829     3.840772   0.84266853    5000.0001 5.0076199e-08 9.6098127e-05  0.056794209    98.193287    98.193287   -59004.908   -57302.956    461.38155 
 1870000      829     3.840772   0.84266853         5000 5.3425234e-08 0.00010123135  0.056815577    98.193287    98.193287   -59005.061   -57302.799    461.44256 
 1875000      829     3.840772   0.84266853    5000.0001 4.3496165e-08 0.00010606492  0.056835892    98.193287    98.193287   -59005.358   -57302.506    461.88694 
 1880000      829     3.840772   0.84266853    5000.0001 5.9301961e-08 0.00011074435  0.056855143    98.193287    98.193287   -59005.267   -57302.596    461.44115 
 1885000      829     3.840772   0.84266853    5000.0001 5.3451142e-08 0.00011516086  0.056873448    98.193287    98.193287   -59005.492    -57302.37    461.38407 
 1890000      829     3.840772   0.84266853         5000 4.2068097e-08 0.00011930547  0.056890855    98.193287    98.193287   -59005.744   -57302.118     461.7704 
 1895000      829     3.840772   0.84266853    5000.0001 4.5760259e-08 0.00012331538  0.056907358    98.193287    98.193287   -59005.843   -57302.021    461.46578 
 1900000      829     3.840772   0.84266853         5000 2.9137191e-08 0.00012711726  0.056923032    98.193287    98.193287   -59005.809   -57302.052    461.28224 
 1905000      829     3.840772   0.84266853         5000 2.0668201e-08 0.00013064511  0.056937953    98.193287    98.193287   -59006.099   -57301.762    461.66352 
 1910000      829     3.840772   0.84266853    5000.0001 2.3142295e-08 0.00013405555  0.056952092    98.193287    98.193287   -59006.039   -57301.824    461.49841 
 1915000      829     3.840772   0.84266853         5000 1.362901e-08 0.00013730212  0.056965521    98.193287    98.193287   -59005.893   -57301.967    461.24754 
 1920000      829     3.840772   0.84266853         5000 1.7396733e-08 0.00014033483  0.056978303    98.193287    98.193287   -59006.027   -57301.833    461.64528 
 1925000      829     3.840772   0.84266853         5000 2.2806893e-08 0.00014326501  0.056990421    98.193287    98.193287   -59005.867   -57301.994    461.54317 
 1930000      829     3.840772   0.84266853         5000 1.7675803e-08 0.00014606788  0.057001924    98.193287    98.193287   -59005.685   -57302.175    461.32668 
 1935000      829     3.840772   0.84266853    4999.9999 2.214666e-08 0.00014867766  0.057012875    98.193287    98.193287   -59005.684   -57302.175    461.63904 
 1940000      829     3.840772   0.84266853         5000 2.0558838e-08 0.00015118828  0.057023264    98.193287    98.193287   -59005.573   -57302.288     461.6191 
 1945000      829     3.840772   0.84266853    4999.9999 1.3556938e-08 0.0001536011  0.057033118    98.193287    98.193287   -59005.393   -57302.467    461.39929 
 1950000      829     3.840772   0.84266853    4999.9999 1.5043073e-08 0.00015584414  0.057042504    98.193287    98.193287   -59005.423   -57302.436     461.6013 
 1955000      829     3.840772   0.84266853         5000 1.079498e-08 0.00015799176   0.05705141    98.193287    98.193287   -59005.427   -57302.434    461.66967 
 1960000      829     3.840772   0.84266853         5000 7.2126674e-09 0.00016006232  0.057059857    98.193287    98.193287   -59005.309   -57302.551    461.39277 
 1965000      829     3.840772   0.84266853         5000 1.0040583e-08 0.00016198967    0.0570679    98.193287    98.193287   -59005.404   -57302.456    461.54993 
 1970000      829     3.840772   0.84266853         5000 7.0677532e-09 0.00016382704  0.057075538    98.193287    98.193287   -59005.515   -57302.346     461.6403 
 1975000      829     3.840772   0.84266853         5000 6.9024887e-09 0.00016560593  0.057082777    98.193287    98.193287   -59005.447   -57302.415    461.37848 
 1980000      829     3.840772   0.84266853         5000 9.0609519e-09 0.00016726465   0.05708967    98.193287    98.193287   -59005.577   -57302.283    461.48765 
 1985000      829     3.840772   0.84266853         5000 6.2157575e-09 0.00016883967   0.05709622    98.193287    98.193287   -59005.678   -57302.184    461.59183 
 1990000      829     3.840772   0.84266853         5000 6.9249488e-09 0.00017037152  0.057102425    98.193287    98.193287   -59005.646   -57302.216    461.40205 
 1995000      829     3.840772   0.84266853         5000 7.535422e-09 0.00017180363  0.057108333    98.193287    98.193287   -59005.707   -57302.154    461.44784 
 2000000      829     3.840772   0.84266853         5000 4.9621775e-09 0.0001731563  0.057113948    98.193287    98.193287   -59005.765   -57302.097    461.59376 
Loop time of 222.578 on 1 procs for 500000 steps with 829 atoms

Performance: 19408.886 tau/day, 2246.399 timesteps/s
99.8% CPU use with 1 MPI tasks x no OpenMP threads

MPI task timing breakdown:
Section |  min time  |  avg time  |  max time  |%varavg| %total
---------------------------------------------------------------
Pair    | 163.71     | 163.71     | 163.71     |   0.0 | 73.55
Neigh   | 0.087396   | 0.087396   | 0.087396   |   0.0 |  0.04
Comm    | 3.3997     | 3.3997     | 3.3997     |   0.0 |  1.53
Output  | 0.035602   | 0.035602   | 0.035602   |   0.0 |  0.02
Modify  | 50.832     | 50.832     | 50.832     |   0.0 | 22.84
Other   |            | 4.509      |            |       |  2.03

Nlocal:        829.000 ave         829 max         829 min
Histogram: 1 0 0 0 0 0 0 0 0 0
Nghost:        151.000 ave         151 max         151 min
Histogram: 1 0 0 0 0 0 0 0 0 0
Neighs:        2026.00 ave        2026 max        2026 min
Histogram: 1 0 0 0 0 0 0 0 0 0

Total # of neighbors = 2026
Ave neighs/atom = 2.4439083
Neighbor list builds = 175
Dangerous builds = 0

## Fin du programme ----------------------------------------------------------------------------------------------------------- ##

print " "
 
print "## Relaxation de l'echantillon ------------------------------------------------------------------------------- ##"
## Relaxation de l'echantillon ------------------------------------------------------------------------------- ##
print " "
 
# Unfix
    unfix       2Dsimu
    unfix       temp_cste # annule le thermostat à la fin du dépot des grains
    unfix       comp_biax # termine la compression bixiale de l'échantillon
    unfix       calcul_v_m
    unfix       sur_amortissement

# Uncompute - efface un calcul pour pouvoir appeler la fonction plus tard
    uncompute   voisin
    uncompute   moy_voisin

# Undump - arrête les affichages
    #undump      compression
    #undump      compression_img

# Relaxation de l'échantillon
    include     in.floes_relaxation_v1.lmp # seconde relaxation l'échantillon après compression
### Relaxation des matériaux granulaires ###

## Relaxation de l'échantillon ------------------------------------------------------------------------------------------------ ##

    # Début de simulation
    timestep    1E-4 # Pas de temps de la simulation

    fix         temp_cste all temp/berendsen 0.0 0.0 200 # définie une température constante durant la simulation
    fix         relaxation all press/berendsen                 iso 0 0 500 # relaxation de l'échantillon

    fix         sur_amortissement all viscous 1.0 # ajout d'une force visqueuse dans l'échantillon

    fix         calcul_v_m all nve/sphere disc # calcul vélocité et moment angulaire de chaque sphère

	fix         2Dsimu all enforce2d # assure une simulation 2D en annulant les forces/vitesse dans la direction z

    ## Calculs ----------------------------------------------------------------------------------------------------------------------- ##

    # Calcul des contraintes dans les floes
    compute     sigma_relax all stress/atom NULL virial # calcul les contraintes dans les floes
    compute     moy_sigma_relax all reduce sum c_sigma_relax[*] # somme le tenseur de contrainte sur l'ensemble des floes

    # Calcul des voisins
    compute      voisin all contact/atom # calcul les voisins situé à d = dmin du centre d'un grain
    compute      moy_voisin all reduce ave c_voisin # moyenne du nombres de voisins

    # Déplacement des grains
    compute      u_relax all displace/atom
    compute      u_moy_relax all reduce ave c_u_relax[*][*]

## Affichage ------------------------------------------------------------------------------------------------------------------- ##

    thermo      5000 # affichage tout les 5 000 pas de temps

    thermo_style custom step atoms c_moy_voisin                  density press ke c_u_moy_relax[1] c_u_moy_relax[2]                  lx ly                  c_moy_sigma_relax[1] c_moy_sigma_relax[2] c_moy_sigma_relax[4]     # affiche : pas de temps/nbr atomes/z/densité/pression/nrj cin/ux/uy/longueur boite/largeur boite/pxx/pyy/pxy

    #dump		 relaxation_img all image 100000 relaxation.*.jpg type type     #             zoom 1.6 adiam 4.0
    #dump_modify	 relaxation_img pad 5

	#dump         relaxation all movie 500 relaxation.avi type type     #             zoom 1.6 adiam 4.0 # crée une vidéo de la relaxation
    #dump_modify relaxation pad 5

## Fin de la relaxation -------------------------------------------------------------------------------------------------------- ##

	run	        500000 #  500000  pas de simulations effectués
Neighbor list info ...
  update every 1 steps, delay 0 steps, check yes
  max neighbors/atom: 2000, page size: 100000
  master list distance cutoff = 4.2
  ghost atom cutoff = 4.2
  binsize = 2.1, bins = 47 47 1
  2 neighbor lists, perpetual/occasional/extra = 1 1 0
  (1) pair gran/hooke/history, perpetual
      attributes: half, newton off, size, history
      pair build: half/size/bin/newtoff
      stencil: half/bin/2d/newtoff
      bin: standard
  (2) compute contact/atom, occasional
      attributes: half, newton off, size
      pair build: half/size/bin/newtoff
      stencil: half/bin/2d/newtoff
      bin: standard
Per MPI rank memory allocation (min/avg/max) = 12.61 | 12.61 | 12.61 Mbytes
Step Atoms c_moy_voisin Density Press KinEng c_u_moy_relax[1] c_u_moy_relax[2] Lx Ly c_moy_sigma_relax[1] c_moy_sigma_relax[2] c_moy_sigma_relax[4] 
 2000000      829     3.840772   0.84266853         5000 4.9621775e-09            0            0    98.193287    98.193287   -59005.765   -57302.096    461.59376 
 2005000      829    0.4318456   0.84236557   0.36777675 0.0013922513 7.0122858e-05 -0.0002570903    98.210944    98.210944   -4.5580471   -3.9973108  -0.70383396 
 2010000      829   0.57297949   0.84234677   0.22505089 0.00086352723 0.00013482072 -0.0002135535     98.21204     98.21204   -2.9667238   -2.2685864  0.087220333 
 2015000      829   0.56936068   0.84233475   0.19735614 0.00056954278 0.00017471465 -0.00014306699     98.21274     98.21274   -2.2772867   -2.3142075  0.044396583 
 2020000      829   0.43063932   0.84232517  0.089396295 0.00043160148 0.00021166721 -7.9106751e-05    98.213299    98.213299   -1.3376036  -0.74187926  0.053625974 
 2025000      829   0.47889023   0.84231799   0.10794541 0.00033273133 0.00022666215 -2.3130732e-05    98.213718    98.213718   -1.2188814    -1.292478 -0.098879917 
 2030000      829   0.47165259    0.8423119  0.055546848 0.0002565728 0.00022242265 1.4612808e-05    98.214073    98.214073  -0.68010259  -0.61203834  0.030453908 
 2035000      829   0.67068758   0.84230605   0.12581087 0.00019604804 0.00020815777 4.1945948e-05    98.214414    98.214414   -1.2468952   -1.6805308  -0.17784453 
 2040000      829   0.39686369   0.84230159   0.04835216 0.00015340213 0.00019186731 5.1709898e-05    98.214673    98.214673  -0.53768013  -0.58725031 0.0057967723 
 2045000      829   0.82147165   0.84229726  0.064738018 0.00011723908 0.00018445738 6.3280848e-05    98.214926    98.214926  -0.74452456  -0.76181282 -0.054446334 
 2050000      829   0.46200241   0.84229455  0.044395755 9.4398203e-05 0.00018871856 7.1351089e-05    98.215084    98.215084  -0.44335344  -0.58963136  0.036849945 
 2055000      829    0.3655006    0.8422926  0.030762861 7.942698e-05 0.0001925945 7.3837763e-05    98.215198    98.215198  -0.38298074   -0.3327723 -0.032325989 
 2060000      829   0.41978287   0.84229086  0.022921276 6.4252456e-05 0.00019572836 7.3526561e-05    98.215299    98.215299  -0.28167803  -0.25161745   0.06894535 
 2065000      829   0.27382388   0.84228941   0.09362318 5.3144731e-05 0.00019706469 6.8916027e-05    98.215384    98.215384   -1.1764911   -1.0022052  0.055628712 
 2070000      829   0.45235223   0.84228839  0.013789305 4.4926185e-05 0.00019555498 6.6612884e-05    98.215443    98.215443  -0.15208132  -0.16873452 -0.0056557322 
 2075000      829   0.24125452   0.84228717  0.021387387 3.7559105e-05 0.00019467058 6.3512233e-05    98.215514    98.215514   -0.2336235  -0.26403088 -0.039622376 
 2080000      829   0.42581423   0.84228624 0.0066260215 3.2354849e-05 0.00019210206 6.0126555e-05    98.215569    98.215569 -0.072165052 -0.081971872 -0.0029565284 
 2085000      829   0.39686369   0.84228552  0.011832134 2.7722155e-05 0.00019093092 5.6432969e-05    98.215611    98.215611  -0.12738385  -0.14791991  0.023861363 
 2090000      829   0.18455971   0.84228491  0.004691456 2.3641975e-05 0.00018666739 5.0380294e-05    98.215646    98.215646 -0.048235163 -0.060897901  -0.02970624 
 2095000      829   0.27382388   0.84228432  0.011273371 1.835808e-05 0.00018080011 4.4551648e-05    98.215681    98.215681  -0.11292184  -0.14939741 7.1497859e-05 
 2100000      829   0.22436671    0.8422838  0.011369407 1.5685257e-05 0.00016951695 4.0161862e-05    98.215711    98.215711   -0.1581267  -0.10643301 -0.014628554 
 2105000      829   0.18335344   0.84228346  0.021269674 1.3642323e-05 0.00015956496 3.3701962e-05    98.215731    98.215731  -0.27811203  -0.21685295  0.037787163 
 2110000      829   0.16525935   0.84228317 0.0032451848 1.193021e-05 0.00015169787 2.7112364e-05    98.215748    98.215748 -0.033681448 -0.041817329  0.001736913 
 2115000      829    0.2026538   0.84228292 0.0063105096 1.0469984e-05 0.00014470384 2.0314974e-05    98.215762    98.215762 -0.077708471 -0.069130167 -0.011490693 
 2120000      829    0.2026538    0.8422827 0.0016071034 9.2193793e-06 0.0001379069 1.3402657e-05    98.215775    98.215775 -0.013709242 -0.023673196 -0.0022048062 
 2125000      829   0.13992762   0.84228248  0.010740986 7.9270312e-06 0.00013147269 6.3604738e-06    98.215788    98.215788  -0.16976658 -0.080184299  0.067654567 
 2130000      829   0.10012063   0.84228219  0.012512718 6.8687607e-06 0.00012566276 -1.8521204e-06    98.215805    98.215805  -0.24487683 -0.046308448  -0.04998351 
 2135000      829   0.16405308   0.84228201 0.0035697391 6.0514048e-06 0.00011971716 -9.7884933e-06    98.215815    98.215815 -0.042750102 -0.040313644 0.00082379424 
 2140000      829   0.17129071   0.84228184 0.0018428211 5.3357612e-06 0.00011403645 -1.7792786e-05    98.215825    98.215825 -0.017057064  -0.02581886 0.0019055132 
 2145000      829    0.2291918   0.84228171 0.0029292746 4.7060647e-06 0.0001086904 -2.6190382e-05    98.215833    98.215833 -0.034588623 -0.033572791  0.004984203 
 2150000      829   0.20989144   0.84228155  0.001003489 4.1214403e-06 0.00010378497 -3.4102099e-05    98.215842    98.215842 -0.011407047 -0.011938167 4.0694343e-06 
 2155000      829   0.11700844   0.84228143 0.0015283222 3.6519106e-06 9.9256843e-05 -4.1338344e-05    98.215849    98.215849 -0.018338276 -0.017221937 -0.0015002182 
 2160000      829    0.2026538   0.84228134 0.0015695974 3.2434131e-06 9.5124663e-05 -4.8575006e-05    98.215854    98.215854 -0.017168442 -0.019353158 0.0057601747 
 2165000      829   0.20506634   0.84228121 0.0014055986 2.8454202e-06 9.0975258e-05 -5.5856957e-05    98.215862    98.215862  -0.01636198 -0.016343799 0.00081864268 
 2170000      829   0.12907117   0.84228115 0.00068514484 2.5439948e-06 8.7280127e-05 -6.3103866e-05    98.215866    98.215866 -0.0041781373 -0.011761651 -0.00057325418 
 2175000      829   0.11338963    0.8422811 0.00031323424 2.2784895e-06 8.3873143e-05 -7.0142864e-05    98.215868    98.215868 -0.0038026284 -0.0034824872 -0.0005008926 
 2180000      829   0.11218335   0.84228106 0.00013262147 2.0307935e-06 8.0271434e-05 -7.7189635e-05    98.215871    98.215871 -0.0013447521 -0.0017375895 6.4440912e-05 
 2185000      829   0.10494572   0.84228101 0.0012633992 1.8131983e-06 7.6761105e-05 -8.4078146e-05    98.215873    98.215873  -0.02258211 -0.0068164361 0.0053025633 
 2190000      829  0.082026538   0.84228098 0.00015349155 1.6201202e-06 7.3410511e-05 -9.0438143e-05    98.215875    98.215875 -0.0021362977 -0.0014325597 0.0010180796 
 2195000      829  0.068757539   0.84228096 0.00019674608 1.453992e-06 7.0301348e-05 -9.6507747e-05    98.215876    98.215876 -0.00065422373 -0.0039215975 -0.00027038869 
 2200000      829  0.074788902   0.84228092 0.00018767591 1.2879234e-06 6.7565936e-05 -0.00010230564    98.215879    98.215879 -0.0022823651 -0.0020827049 -5.1234487e-05 
 2205000      829   0.18817853   0.84228086 0.0014413098 1.1225699e-06 6.4711965e-05 -0.00010797357    98.215882    98.215882 -0.014993005 -0.018547313 -0.0035315105 
 2210000      829   0.24004825    0.8422808 0.00043225918 9.9677515e-07 6.1793126e-05 -0.00011347681    98.215886    98.215886 -0.0050130254 -0.0050446378 -0.00033284819 
 2215000      829   0.12545235   0.84228078 0.00010390282 8.9414317e-07 5.9131557e-05 -0.00011857716    98.215887    98.215887 -0.0011210616 -0.0012952057 0.00013382089 
 2220000      829    0.2291918   0.84228074 0.00033958787 7.947004e-07 5.6865942e-05 -0.0001234885    98.215889    98.215889 -0.0050417734 -0.0028596219 -3.4890271e-05 
 2225000      829    0.1495778   0.84228069 0.00050952095 6.995835e-07 5.4544811e-05 -0.00012805508    98.215892    98.215892 -0.0053114491 -0.0065448676 -0.00058988987 
 2230000      829   0.11942099   0.84228067 0.00059639202 6.2359122e-07 5.2340406e-05 -0.00013241053    98.215894    98.215894 -0.010257858 -0.003620299 -0.001424219 
 2235000      829   0.12303981   0.84228065 0.00038145055 5.5833382e-07 5.027636e-05 -0.0001367444    98.215895    98.215895 -0.0046520795 -0.0042240296 0.00075010585 
 2240000      829   0.11821472   0.84228063 0.00059319986 5.0118905e-07 4.8438755e-05 -0.00014078406    98.215896    98.215896 -0.0082425668 -0.005561547 -0.0040233644 
 2245000      829    0.2291918   0.84228061 0.00017943685 4.4679723e-07 4.6759001e-05 -0.00014440575    98.215897    98.215897 -0.0022128445 -0.0019621676 -0.00041277526 
 2250000      829   0.13268999   0.84228059 0.00031944057 4.0224884e-07 4.518928e-05 -0.00014782305    98.215898    98.215898 -0.0025456672 -0.0048876406 -0.00035437123 
 2255000      829   0.11338963   0.84228058 6.9872066e-05 3.6240408e-07 4.3686257e-05 -0.00015104042    98.215898    98.215898 -0.00083746102 -0.00078789691 -0.00010443537 
 2260000      829  0.074788902   0.84228058 2.6373715e-05 3.2693256e-07 4.2312289e-05 -0.00015403315    98.215899    98.215899 -0.00025141329 -0.00036170948 -6.5265742e-05 
 2265000      829   0.05548854   0.84228057 0.00027494083 2.9399435e-07 4.0986036e-05 -0.0001568883    98.215899    98.215899 -0.0033077788 -0.0030901351 0.00018099349 
 2270000      829   0.10494572   0.84228056 0.00016147556 2.6497748e-07 3.9664007e-05 -0.00015965238      98.2159      98.2159 -0.0026371105 -0.001120265 -0.0003515341 
 2275000      829   0.12062726   0.84228056 0.00010408802 2.3847818e-07 3.8324332e-05 -0.00016220376      98.2159      98.2159 -0.0013536405 -0.0010682489 0.00020964523 
 2280000      829   0.11821472   0.84228055 6.9264871e-05 2.1505284e-07 3.6991314e-05 -0.00016460412      98.2159      98.2159 -0.0011037794 -0.00050774247 7.828741e-05 
 2285000      829   0.12062726   0.84228055 0.00024269648 1.9418031e-07 3.5653956e-05 -0.00016682921    98.215901    98.215901 -0.0025234982 -0.0031242157 -0.0011741908 
 2290000      829  0.074788902   0.84228054 0.00012405054 1.7540829e-07 3.4390354e-05 -0.0001688777    98.215901    98.215901 -0.001736668 -0.0011499211 3.0462213e-05 
 2295000      829  0.092882992   0.84228054 0.00021997727 1.5825822e-07 3.321781e-05 -0.00017077273    98.215901    98.215901 -0.0020196658 -0.0030993921 0.00010847481 
 2300000      829   0.13268999   0.84228053 8.1456057e-05 1.4266858e-07 3.2093949e-05 -0.00017254279    98.215901    98.215901 -0.00094720244 -0.00094818102 5.8846265e-06 
 2305000      829  0.082026538   0.84228053 5.2286219e-05 1.2895613e-07 3.1008799e-05 -0.00017410103    98.215902    98.215902 -0.0005276898 -0.00068887223 -0.00023305906 
 2310000      829   0.12424608   0.84228053 9.3551206e-06 1.1662636e-07 2.9982305e-05 -0.00017558118    98.215902    98.215902 -9.6914307e-05 -0.0001205675 -7.7612628e-06 
 2315000      829  0.079613993   0.84228052 1.4039872e-05 1.054478e-07 2.9004855e-05 -0.00017697723    98.215902    98.215902 -0.00025999216 -6.6536893e-05 -3.3566785e-05 
 2320000      829  0.059107358   0.84228052 3.1731023e-05 9.5464422e-08 2.8106177e-05 -0.00017824762    98.215902    98.215902 -8.5341948e-05 -0.00065292064 2.9678343e-05 
 2325000      829   0.10373945   0.84228052 4.6940197e-05 8.6131222e-08 2.7268485e-05 -0.00017940841    98.215902    98.215902 -0.00037346873 -0.00071876481 -7.1171112e-05 
 2330000      829   0.16767189   0.84228052 4.4539996e-05 7.7926635e-08 2.6510348e-05 -0.00018048195    98.215902    98.215902 -0.00057850323 -0.00045788854 -7.142041e-05 
 2335000      829  0.061519903   0.84228051 1.8157842e-05 6.9023819e-08 2.5681637e-05 -0.0001815951    98.215903    98.215903 -0.00036022301 -6.2213479e-05 6.201185e-05 
 2340000      829  0.072376357   0.84228051 3.1521941e-05 6.2255526e-08 2.4863404e-05 -0.00018260511    98.215903    98.215903 -0.000164149 -0.00056931418 4.9180978e-05 
 2345000      829  0.068757539   0.84228051 2.3504402e-05 5.6175958e-08 2.4148762e-05 -0.00018352851    98.215903    98.215903 -0.00034766887  -0.00019922 3.7655136e-05 
 2350000      829   0.05548854    0.8422805 3.9614054e-05 5.0493828e-08 2.3523377e-05 -0.00018438428    98.215903    98.215903 -0.00034545329 -0.00057635541 0.00026265293 
 2355000      829  0.086851628    0.8422805 5.0369067e-05 4.5667777e-08 2.2911828e-05 -0.00018518902    98.215903    98.215903 -0.00051368188 -0.00065843024 0.00023956617 
 2360000      829  0.054282268    0.8422805 3.4890195e-05 4.1297782e-08 2.2318031e-05 -0.00018595065    98.215903    98.215903 -0.00032072605 -0.00049116605 0.00017433335 
 2365000      829  0.089264174    0.8422805 1.4470757e-05 3.7408013e-08 2.1768714e-05 -0.00018666762    98.215903    98.215903 -0.00020234056 -0.00013435226 8.8222844e-05 
 2370000      829  0.096501809    0.8422805 1.349327e-05 3.3857526e-08 2.1266989e-05 -0.00018734618    98.215904    98.215904 -0.00014974527 -0.00016420628 2.7905259e-06 
 2375000      829  0.071170084   0.84228049 9.9471203e-06 3.0694779e-08 2.0782027e-05 -0.00018795949    98.215904    98.215904 -8.0143735e-05 -0.00015128713 2.3125517e-05 
 2380000      829  0.086851628   0.84228049 5.0619686e-06 2.781867e-08 2.0318892e-05 -0.00018851783    98.215904    98.215904 -5.9074784e-05 -5.8673175e-05 1.1137563e-05 
 2385000      829   0.11338963   0.84228049 2.8150344e-06 2.5231675e-08 1.9872042e-05 -0.00018903763    98.215904    98.215904 -3.3000002e-05 -3.2461829e-05 5.4538762e-06 
 2390000      829  0.067551267   0.84228049 4.5539634e-06 2.2897138e-08 1.9442436e-05 -0.00018951203    98.215904    98.215904 -8.6274199e-05 -1.9661158e-05 1.3672862e-05 
 2395000      829   0.12424608   0.84228049 1.9195461e-05 2.0779455e-08 1.9036712e-05 -0.00018994052    98.215904    98.215904 -0.00026372315 -0.00018295761 2.2898865e-05 
 2400000      829    0.1628468   0.84228049 5.4669152e-06 1.8855911e-08 1.8652826e-05 -0.00019034268    98.215904    98.215904 -5.1507878e-05 -7.5682041e-05 -5.5522945e-06 
 2405000      829  0.097708082   0.84228049 6.2877792e-06 1.7115573e-08 1.8291108e-05 -0.00019072184    98.215904    98.215904 -0.00011038652 -3.5910263e-05 -4.1447895e-05 
 2410000      829  0.067551267   0.84228049 7.9237333e-06 1.552793e-08 1.7955306e-05 -0.00019106952    98.215904    98.215904 -5.3868687e-05 -0.00013050367 1.344791e-05 
 2415000      829  0.086851628   0.84228049 1.3176462e-06 1.4103852e-08 1.7634822e-05 -0.00019138923    98.215904    98.215904 -1.7031329e-05 -1.3605107e-05 -3.0606041e-06 
 2420000      829   0.10615199   0.84228049 3.5832918e-06 1.2810212e-08 1.7323672e-05 -0.000191669    98.215904    98.215904 -4.4220509e-05 -3.9145272e-05 4.6740849e-06 
 2425000      829  0.086851628   0.84228049 3.9811349e-05 1.1618099e-08 1.7023384e-05 -0.00019192019    98.215904    98.215904 -0.00030631408 -0.0006201639 8.4676413e-06 
 2430000      829  0.045838359   0.84228049 2.3187132e-06 1.0552843e-08 1.6741155e-05 -0.0001921525    98.215904    98.215904 -2.347331e-05 -3.0467347e-05 6.1726505e-06 
 2435000      829  0.060313631   0.84228049 3.6570087e-06 9.5851702e-09 1.6476089e-05 -0.00019237601    98.215904    98.215904 -6.8037769e-05 -1.7050024e-05 8.2913359e-07 
 2440000      829  0.077201448   0.84228049 2.6647711e-06 8.7116177e-09 1.6227492e-05 -0.00019257888    98.215904    98.215904 -4.6174024e-05 -1.5823876e-05 -1.3256268e-06 
 2445000      829    0.1495778   0.84228049 2.3314994e-06 7.920497e-09 1.5990619e-05 -0.00019275837    98.215904    98.215904 -3.3406638e-05 -2.083685e-05 5.2104671e-06 
 2450000      829   0.16646562   0.84228049  4.18387e-06 7.1963658e-09 1.5760814e-05 -0.00019292277    98.215904    98.215904 -4.3453014e-05 -5.3900826e-05 5.8254319e-06 
 2455000      829   0.18817853   0.84228049 5.7349007e-06 6.5305349e-09 1.5547848e-05 -0.0001930708    98.215904    98.215904 -0.00010151505 -3.1936157e-05 3.8288948e-06 
 2460000      829   0.10373945   0.84228049 2.0204765e-06 5.9416412e-09 1.5346355e-05 -0.00019319949    98.215904    98.215904 -1.7542904e-05 -2.9466326e-05 4.5624898e-07 
 2465000      829  0.086851628   0.84228049  8.04465e-06 5.4005828e-09 1.5154045e-05 -0.00019331505    98.215904    98.215904 -0.000112782 -7.442462e-05 2.2224883e-05 
 2470000      829   0.10012063   0.84228049 7.7935132e-06 4.9090412e-09 1.4971653e-05 -0.00019341676    98.215904    98.215904 -0.00013079524 -5.0567832e-05 3.7164077e-05 
 2475000      829   0.10977081   0.84228048 4.0735562e-06 4.4637057e-09 1.4802219e-05 -0.00019350418    98.215904    98.215904 -6.1473162e-05 -3.3318887e-05 5.544345e-06 
 2480000      829   0.18094089   0.84228048 5.0943464e-06 4.0628184e-09 1.4639599e-05 -0.00019358359    98.215904    98.215904 -6.3949284e-05 -5.4599691e-05 -2.5668847e-06 
 2485000      829  0.062726176   0.84228048 7.3422356e-05 3.6911563e-09 1.4486299e-05 -0.00019365281    98.215904    98.215904 -0.00044315438 -0.0012655445 0.00015024862 
 2490000      829  0.089264174   0.84228048 1.7465368e-06 3.3593867e-09 1.4339283e-05 -0.00019370723    98.215904    98.215904 -2.2378583e-05 -1.8260608e-05 -4.3887866e-06 
 2495000      829   0.11580217   0.84228048 2.0417971e-06 3.0579396e-09 1.4198624e-05 -0.00019375586    98.215904    98.215904 -2.3144279e-05 -2.4366896e-05 -4.6888671e-06 
 2500000      829    0.1013269   0.84228048 2.2904147e-06 2.7820849e-09 1.4066327e-05 -0.00019379904    98.215904    98.215904 -2.9758133e-05 -2.3539495e-05 -1.4345198e-06 
Loop time of 86.7195 on 1 procs for 500000 steps with 829 atoms

Performance: 49815.785 tau/day, 5765.716 timesteps/s
99.9% CPU use with 1 MPI tasks x no OpenMP threads

MPI task timing breakdown:
Section |  min time  |  avg time  |  max time  |%varavg| %total
---------------------------------------------------------------
Pair    | 27.911     | 27.911     | 27.911     |   0.0 | 32.19
Neigh   | 0.0029149  | 0.0029149  | 0.0029149  |   0.0 |  0.00
Comm    | 3.3785     | 3.3785     | 3.3785     |   0.0 |  3.90
Output  | 0.029124   | 0.029124   | 0.029124   |   0.0 |  0.03
Modify  | 50.907     | 50.907     | 50.907     |   0.0 | 58.70
Other   |            | 4.491      |            |       |  5.18

Nlocal:        829.000 ave         829 max         829 min
Histogram: 1 0 0 0 0 0 0 0 0 0
Nghost:        152.000 ave         152 max         152 min
Histogram: 1 0 0 0 0 0 0 0 0 0
Neighs:        2026.00 ave        2026 max        2026 min
Histogram: 1 0 0 0 0 0 0 0 0 0

Total # of neighbors = 2026
Ave neighs/atom = 2.4439083
Neighbor list builds = 6
Dangerous builds = 0


#fin du programme

print " "
 
print "## Cisaillement de l'echantillon ----------------------------------------------------------------------------- ##"
## Cisaillement de l'echantillon ----------------------------------------------------------------------------- ##
print " "
 
# Unfix
    unfix       2Dsimu
    unfix       temp_cste
    unfix       relaxation # arrête la relaxation de l'échantillon
    unfix       calcul_v_m

# Uncompute - efface un calcul pour pouvoir appeler la fonction plus tard
    uncompute   voisin
    uncompute   moy_voisin

# Undump - arrête les affichages
    #undump      relaxation

    include     in.floes_shearing_v1.lmp # cisaille l'échantillon a vitesse constante et sous force constante
### Compression unixial de matériaux granulaires ###

## Création des groupes ------------------------------------------------------------------------------------------------------- ##

# Calcul du diamètre des grains
    # Ce bloc s'assure que la valeur calcul est bien actualisée
    compute      dgrain all property/atom diameter # calcul le diamètre des grains -> output = scalaire / grain
    compute      scal_dgrain all reduce ave c_dgrain # calcul du diamètre moyen des particules
    thermo_style custom step pxx pyy pxy c_scal_dgrain # modification de l'affichage
    run          0
Neighbor list info ...
  update every 1 steps, delay 0 steps, check yes
  max neighbors/atom: 2000, page size: 100000
  master list distance cutoff = 4.2
  ghost atom cutoff = 4.2
  binsize = 2.1, bins = 47 47 1
  1 neighbor lists, perpetual/occasional/extra = 1 0 0
  (1) pair gran/hooke/history, perpetual
      attributes: half, newton off, size, history
      pair build: half/size/bin/newtoff
      stencil: half/bin/2d/newtoff
      bin: standard
Per MPI rank memory allocation (min/avg/max) = 13.23 | 13.23 | 13.23 Mbytes
Step Pxx Pyy Pxy c_scal_dgrain 
 2500000 2.4453203e-06 1.9397288e-06 7.7962061e-08    3.4969843 
Loop time of 1.90735e-06 on 1 procs for 0 steps with 829 atoms

104.9% CPU use with 1 MPI tasks x no OpenMP threads

MPI task timing breakdown:
Section |  min time  |  avg time  |  max time  |%varavg| %total
---------------------------------------------------------------
Pair    | 0          | 0          | 0          |   0.0 |  0.00
Neigh   | 0          | 0          | 0          |   0.0 |  0.00
Comm    | 0          | 0          | 0          |   0.0 |  0.00
Output  | 0          | 0          | 0          |   0.0 |  0.00
Modify  | 0          | 0          | 0          |   0.0 |  0.00
Other   |            | 1.907e-06  |            |       |100.00

Nlocal:        829.000 ave         829 max         829 min
Histogram: 1 0 0 0 0 0 0 0 0 0
Nghost:        151.000 ave         151 max         151 min
Histogram: 1 0 0 0 0 0 0 0 0 0
Neighs:        2026.00 ave        2026 max        2026 min
Histogram: 1 0 0 0 0 0 0 0 0 0

Total # of neighbors = 2026
Ave neighs/atom = 2.4439083
Neighbor list builds = 0
Dangerous builds = 0

# Stockage des grains par groupe de taille
    variable     d_min atom "c_dgrain == 3.0"
    group        dgrain_min variable d_min # place tout les grains d = dmin dans ce groupe
417 atoms in group dgrain_min
    variable     d_max atom "c_dgrain == 4.0"
    group        dgrain_max variable d_max # place tout les grains d = dmax dans ce groupe
412 atoms in group dgrain_max

# Création des bords
    # Crée les groupes des limites supérieur et inférieur celon Oy
    group        limite_yh region limite_sup
56 atoms in group limite_yh
    group        limite_yb region limite_inf
43 atoms in group limite_yb
    group        limite_y union limite_yb limite_yh
99 atoms in group limite_y

    # Crée le groupe des floes cisaillés
    group        floes subtract all limite_y
730 atoms in group floes

    # Crée le groupe par taille de grains
    group        dfloes_min subtract floes dgrain_max
366 atoms in group dfloes_min
    group        dfloes_max subtract floes dgrain_min
364 atoms in group dfloes_max

## Modification de la simulation ------------------------------------------------------------------------------------------------ ##

# Affichage du bord rigide d'une couleur différente
    set          group limite_y type 2
Setting atom values ...
  99 settings made for type

# Modification des conditions aux limites
    change_box   all boundary p s p remap units box # changement conditions aux limites et modification agencement grain
Changing box ...
WARNING: Reset image flags for non-periodic boundary (../domain.cpp:1908)
    set          group all image NULL NULL NULL # repositionne les grains avec les nouvelles conditions aux limites
Setting atom values ...
  829 settings made for image

## Ajout de la friction grain/grain grain/mur mur/grain ------------------------------------------------------------------------- ##

    pair_style   gran/hooke/history 2E7 1E7 2E4 2E4 0.5 0 # contact Hookien entre particule sans friction
    pair_coeff	 * *

    # Definition des contacts paroi/grains
    fix          paroiy floes wall/gran hooke/history 2E7 1E7 2E4 2E4 0.5 0                  yplane 0 NULL

## Création des variables ------------------------------------------------------------------------------------------------------- ##

    variable     vx_piston equal vcm(limite_yh,x) # crée une variable de controle de la vitesse pour la simulation
    variable     cisaillement equal 1 # vitesse de cisaillement imposée
    variable     relax_force loop 500 # relaxation tous les 500 pas de simulation
    variable     force_comp equal -50 # compression de l echantillon par F = -100
    variable     nvforce_comp equal v_force_comp # creation de la variable nv_force pour la boucle de controle de la pression appliquee
    variable     comp_floes equal 1E3 # pression desiree pour l assemblage de grains

## Cisaillement de l'échantillon ------------------------------------------------------------------------------------------------ ##

    # Force appliqué sur le système
    fix          sur_amortissement all viscous 1.0 # ajout d'une force visqueuse dans l'échantillon
    fix          paroie_sup limite_yh setforce 0.0 0.0 0.0 # fixe la paroie supérieur en prenant fx = fy = fz = 0.0
    fix          paroie_inf limite_yb setforce 0.0 0.0 0.0 # fixe la paroie inferieur en prenant fx = fy = fz = 0

    # Début de simulation
    timestep     1E-5 # Pas de temps de la simulation

    fix          temp_cste floes temp/berendsen 0.0 0.0 100 # définie une température constante durant la simulation

    # Definition du cisaillement par vitesse contante imposée sur la limite supérieur v = v_cisaillement
    velocity     limite_yh set v_cisaillement NULL NULL sum no units box

    # Force appliquée sur le système
    #if           "${relax_force} == 200" then "force_comp == 0.0" & "relax_force == 0"     #else         "next relax_force"
    #fix          compression limite_yh addforce 0.0 v_force_comp 0.0
    #variable     force_comp equal -5E-1

    # Boucle de controle de la pression de compression
    compute      sxx_grain limite_yh stress/atom NULL virial # calcul de la pression appliqué
    compute      sxx limite_yh reduce sum c_sxx_grain[*]
    variable     pression equal c_sxx[1]
    thermo_style custom step c_sxx[1] c_sxx[2] c_sxx[4] # modification de l'affichage
    run 0
Per MPI rank memory allocation (min/avg/max) = 13.72 | 13.72 | 13.72 Mbytes
Step c_sxx[1] c_sxx[2] c_sxx[4] 
 2500000            0            0            0 
Loop time of 1.90735e-06 on 1 procs for 0 steps with 829 atoms

52.4% CPU use with 1 MPI tasks x no OpenMP threads

MPI task timing breakdown:
Section |  min time  |  avg time  |  max time  |%varavg| %total
---------------------------------------------------------------
Pair    | 0          | 0          | 0          |   0.0 |  0.00
Neigh   | 0          | 0          | 0          |   0.0 |  0.00
Comm    | 0          | 0          | 0          |   0.0 |  0.00
Output  | 0          | 0          | 0          |   0.0 |  0.00
Modify  | 0          | 0          | 0          |   0.0 |  0.00
Other   |            | 1.907e-06  |            |       |100.00

Nlocal:        829.000 ave         829 max         829 min
Histogram: 1 0 0 0 0 0 0 0 0 0
Nghost:        71.0000 ave          71 max          71 min
Histogram: 1 0 0 0 0 0 0 0 0 0
Neighs:        1938.00 ave        1938 max        1938 min
Histogram: 1 0 0 0 0 0 0 0 0 0

Total # of neighbors = 1938
Ave neighs/atom = 2.3377563
Neighbor list builds = 0
Dangerous builds = 0

    # boucle de controle ajustant la force appliquée par rapport à la contrainte cible
    if           "${pression} > ${comp_floes}" then "variable nvforce_comp equal ${force_comp}/1.2"                  "variable force_comp equal v_nvforce_comp"     elif         "${pression} < ${comp_floes}"                  "variable nvforce_comp equal ${force_comp}*1.2"                  "variable force_comp equal v_nvforce_comp"
variable nvforce_comp equal ${force_comp}*1.2
variable nvforce_comp equal -50*1.2
variable force_comp equal v_nvforce_comp
    fix          compression limite_yh addforce 0.0 v_force_comp 0.0

    fix          piston limite_yh rigid single # crée une couche de grain rigide
  1 rigid bodies with 56 atoms

    fix          calcul_v_m floes nve/sphere disc # calcul vélocité et moment angulaire de chaque sphère

    fix          2Dsimu all enforce2d # assure une simulation 2D en annulant les forces/vitesse dans la direction z

## Calculs ----------------------------------------------------------------------------------------------------------------------- ##

    # Calcul des voisins
    compute      voisin floes contact/atom # calcul les voisins situé à d = dmin du centre d'un grain
    compute      moy_voisin floes reduce ave c_voisin # moyenne du nombres de voisins

    # Calcul des contraintes du bord rigide supérieur
    compute      sigma limite_yh stress/atom NULL virial # calcul les contraintes sur le bord rigide cisaillant
    compute      moy_sigma limite_yh reduce sum c_sigma[*] # somme le tenseur de contrainte sur l'ensemble des atome du bord rigide

    # Calcul des contraintes dans les floes
    compute      sigma_floes floes stress/atom NULL virial # calcul les contraintes dans les floes
    compute      moy_sigma_floes floes reduce sum c_sigma_floes[*] # somme le tenseur de contrainte sur l'ensemble des floes

    # Déplacement des grains et des bords rigides
    compute      u_bordsup limite_yh displace/atom
    compute      u_bordinf limite_yb displace/atom
    compute      u_floes floes displace/atom

    compute      u_moy_bordsup limite_yh reduce ave c_u_bordsup[*][*]
    compute      u_moy_bordinf limite_yb reduce ave c_u_bordinf[*][*]
    compute      u_moy_floes floes reduce ave c_u_floes[*][*]

## Commande-d'affichage ---------------------------------------------------------------------------------------------------------- ##

    thermo       1000 # affichage tout les 1000 pas de temps

    # affichage des données du probleme
    thermo_style custom                  step atoms temp press                  c_moy_voisin density                  lx ly                  c_moy_sigma_floes[1] c_moy_sigma_floes[2] c_moy_sigma_floes[4]                  c_moy_sigma[1] c_moy_sigma[2] c_moy_sigma[4]                  c_u_moy_bordsup[1] c_u_moy_bordsup[2]                  c_u_moy_bordinf[1] c_u_moy_bordinf[2]                  c_u_moy_floes[1] c_u_moy_floes[2]

    # Sorties graphiques
    dump		 cisaillement_img all image 10000 cisaillement.*.jpg type type                  zoom 1.6 adiam 4.0
    dump_modify	 cisaillement_img pad 5

    #dump         evo_voisin floes custom 1000 voisin.txt id c_voisin # affiche le nombre de voisin / grain dans un fichier texte pour d = dmin

	#dump         shearing all movie 500 shearing.avi type type     #             zoom 1.6 adiam 4.0 # crée une vidéo du cisaillement
	#dump_modify  shearing pad 5

## Fin du cisaillement ------------------------------------------------------------------------------------------------------------ ##

	run          250000 #  250 000 pas de simulations effectués
Neighbor list info ...
  update every 1 steps, delay 0 steps, check yes
  max neighbors/atom: 2000, page size: 100000
  master list distance cutoff = 4.2
  ghost atom cutoff = 4.2
  binsize = 2.1, bins = 47 47 1
  2 neighbor lists, perpetual/occasional/extra = 1 1 0
  (1) pair gran/hooke/history, perpetual
      attributes: half, newton off, size, history
      pair build: half/size/bin/newtoff
      stencil: half/bin/2d/newtoff
      bin: standard
  (2) compute contact/atom, occasional
      attributes: half, newton off, size
      pair build: half/size/bin/newtoff
      stencil: half/bin/2d/newtoff
      bin: standard
Per MPI rank memory allocation (min/avg/max) = 17.99 | 17.99 | 17.99 Mbytes
Step Atoms Temp Press c_moy_voisin Density Lx Ly c_moy_sigma_floes[1] c_moy_sigma_floes[2] c_moy_sigma_floes[4] c_moy_sigma[1] c_moy_sigma[2] c_moy_sigma[4] c_u_moy_bordsup[1] c_u_moy_bordsup[2] c_u_moy_bordinf[1] c_u_moy_bordinf[2] c_u_moy_floes[1] c_u_moy_floes[2] 
 2500000      829   0.35029496    16.770073            0    0.8426318    98.215904    98.174956            0            0            0  0.096758237     -389.582   -220.80133            0            0            0            0            0            0 
 2501000      829   0.53982458    57.628245   0.41232877    0.8426318    98.215904    98.174956   -616.88967   -617.12852    258.62257    -50.03441   -55.558521    52.246387 0.0099999681 -0.0003215714            0            0 0.00025450751 -0.00018285588 
 2502000      829   0.70779426    115.86894          0.9    0.8426318    98.215904    98.174956   -1495.9716   -1109.1839    418.43474   -40.224553    -48.75814    36.448337  0.020000089 -0.0012869689            0            0 0.00089247807 -0.0007838925 
 2503000      829   0.89024286    157.22586    1.4136986    0.8426318    98.215904    98.174956   -1900.5603   -1661.2013     585.6414   -45.726165   -48.391344    28.363772  0.030000543 -0.0028967935            0            0 0.0018893024 -0.0018358674 
 2504000      829    1.0908073    207.90783    1.8712329    0.8426318    98.215904    98.174956   -2433.9807   -2288.8666    670.75892   -42.460066   -69.204562    22.038695  0.040001542 -0.0051517389            0            0  0.003226974 -0.0033993284 
 2505000      829    1.3158882    301.09437    2.3931507    0.8426318    98.215904    98.174956   -3646.9718   -3225.9766    928.17878   -56.975471    -71.94322    27.073018  0.050003087 -0.008051817            0            0 0.0048762027 -0.0055705526 
 2506000      829    1.6227873    437.24454    2.8726027    0.8426318    98.215904    98.174956   -5197.9562   -4798.1921    1427.4528    -67.52092   -104.85099    48.491319  0.060005219 -0.011597159            0            0 0.0068693804 -0.0084722125 
 2507000      829     1.799588     861.6852    3.1068493    0.8426318    98.215904    98.174956   -8738.1472   -10729.213    2306.1586   -69.673241   -145.51477    54.361351  0.070007865  -0.01578752            0            0 0.0093287928 -0.011953695 
 2508000      829    1.7841512     1287.178    3.1520548    0.8426318    98.215904    98.174956   -12655.663   -16521.247    3628.9784   -106.48739    -235.8091    65.798499  0.080011025 -0.020622905            0            0   0.01221448 -0.014748486 
 2509000      829    1.9077042    1739.4647    3.1863014    0.8426318    98.215904    98.174956   -17021.146   -22399.221     5583.437   -149.70834   -398.97336    97.051139  0.090015126 -0.026104725            0            0  0.015545628 -0.017005519 
 2510000      829    2.3221303    2244.9925    3.2616438   0.84288419    98.215904    98.145558   -21981.587   -28845.357    7504.5048   -198.29435   -574.80581    125.25752   0.10002071 -0.032234782            0            0  0.019450112 -0.019411608 
 2511000      829    2.9408524       2825.5    3.2753425   0.84288419    98.215904    98.145558   -27280.816   -36713.001    9700.1727   -247.45172   -682.56644    159.38877   0.11002807 -0.039014007            0            0  0.023995676 -0.022463714 
 2512000      829    3.5004367    3466.9861    3.3246575   0.84288419    98.215904    98.145558   -32983.978   -45516.809    11938.198   -280.96156   -821.82594    168.17402   0.12003745 -0.046443264            0            0  0.029182195 -0.026182242 
 2513000      829    3.7988056    4186.0138    3.3465753   0.84288419    98.215904    98.145558   -39437.532   -55334.841     14087.81   -334.92695   -989.59562    181.01287   0.13004927 -0.054523884            0            0  0.034771965 -0.030242226 
 2514000      829    3.9506903    4973.5304    3.3328767   0.84288419    98.215904    98.145558   -46503.035   -66096.773    16553.571   -394.88166   -1185.6899    198.86046   0.14006432   -0.0632585            0            0   0.04047462 -0.034485493 
 2515000      829    4.1785162    5818.2026    3.3260274   0.84288419    98.215904    98.145558   -54282.422   -77444.168    19054.754   -462.83885   -1396.6293    211.88997   0.15008337 -0.072649669            0            0  0.046032695 -0.039024336 
 2516000      829    4.4430587     6770.183    3.3767123   0.84326302    98.215904    98.101467   -62720.517    -90480.21    21741.839   -537.86065   -1631.4131    247.50511   0.16010719 -0.082699837            0            0  0.051221158 -0.044055492 
 2517000      829    4.7693696    7826.5542    3.3972603   0.84326302    98.215904    98.101467   -71868.047   -105215.99    24234.135   -628.03695    -1895.805     264.4129   0.17013643 -0.093411214            0            0  0.055936398 -0.049645117 
 2518000      829    5.1845824    8944.1828    3.3863014   0.84326302    98.215904    98.101467   -81615.041   -120724.75    26710.116   -734.44701   -2157.8745    299.11818    0.1801721  -0.10478703            0            0  0.060179377 -0.055782576 
 2519000      829    5.6415247    10155.737          3.4   0.84326302    98.215904    98.101467   -92304.826   -137461.25    28403.088   -831.70019   -2436.6339     314.5956   0.19021522  -0.11683066            0            0  0.064050271 -0.062364428 
 2520000      829     6.194727    11461.613    3.4150685   0.84330024    98.215904    98.097137   -104054.34   -155243.36    30447.765   -938.95625   -2751.2273    332.73588   0.20026715  -0.12954645            0            0  0.067508401  -0.06927486 
 2521000      829    7.1781988    12973.464    3.4917808   0.84330024    98.215904    98.097137   -116986.45   -176520.55     32855.53   -1064.1418   -3151.3456    396.34775   0.21032944  -0.14293943            0            0  0.070616803 -0.076598931 
 2522000      829    8.9705142     14686.65    3.5068493   0.84330024    98.215904    98.097137   -132216.38   -200078.91    35070.909   -1202.8221   -3573.4724    452.37878   0.22040341  -0.15701375            0            0  0.073659892 -0.084780885 
 2523000      829    11.507172    16654.199    3.5561644   0.84317805    98.215904    98.111353   -148520.08   -228348.73    37156.407   -1363.3712   -4027.1107    480.80686   0.23049146  -0.17177712            0            0  0.076876744 -0.094273102 
 2524000      829    14.270332    18860.676    3.5753425   0.84317805    98.215904    98.111353   -167042.23   -259726.93    39247.242    -1516.102   -4560.5887    514.14566   0.24059562  -0.18723588            0            0  0.080393412  -0.10511014 
 2525000      829    17.157608    21283.724    3.5890411   0.84294819    98.215904    98.138106   -187973.97   -293728.19    42438.258   -1726.4489   -5103.2875     529.2758   0.25071698  -0.20339324            0            0  0.084321565  -0.11705576 
 2526000      829     20.87696    23875.897     3.590411   0.84294819    98.215904    98.138106   -209059.66   -331242.95    45493.619   -1954.7055   -5742.2347    564.03413   0.26085675   -0.2202527            0            0  0.088812192  -0.12979499 
 2527000      829    25.040865    26792.971    3.5643836   0.84265118    98.215904    98.172697   -235201.02   -371338.67    50035.289   -2233.5781   -6422.6915    633.63036   0.27101618  -0.23781772            0            0  0.094001503  -0.14338216 
 2528000      829    30.039666    29994.402    3.5958904   0.84230992    98.215904    98.212471    -262463.7   -416763.21    54430.626   -2529.2384    -7203.496    700.31448   0.28119629  -0.25609098            0            0  0.099968603  -0.15819597 
 2529000      829    36.037662    33400.091     3.609589   0.84193711    98.215904     98.25596   -291884.56   -464724.45     59682.94   -2815.4497   -8036.2986    765.00751    0.2913982  -0.27507532            0            0   0.10647292  -0.17427529 
 2530000      829     42.41049     37127.82    3.6041096   0.84157753    98.215904    98.297942   -327072.43   -514468.08    65129.505   -3075.9168   -8879.8012    925.13248   0.30162175   -0.2947693            0            0   0.11354034  -0.19131205 
 2531000      829    51.086644    41332.224    3.5931507    0.8412868    98.215904    98.331912   -363494.79   -573683.98    70867.593   -3298.9966   -10111.094    977.70359   0.31186679  -0.31517153            0            0   0.12190615  -0.20939414 
 2532000      829    62.504928    45956.856    3.6232877   0.84089699    98.215904    98.377494   -403050.51   -639658.24    79622.194   -3475.6469   -11171.105    1059.0877   0.32213386  -0.33628269            0            0   0.13186975  -0.23000763 
 2533000      829    72.370965    50774.456    3.6191781   0.84046719    98.215904    98.427803   -444981.36   -707639.48    89893.873   -3734.6375   -12271.357     1141.217   0.33242364  -0.35810384            0            0   0.14339358  -0.25268853 
 2534000      829    81.354395    55814.032     3.660274    0.8400271    98.215904     98.47937   -489964.53    -777738.2    100720.92    -4039.874   -13475.507    1299.7235   0.34273784  -0.38063912            0            0   0.15589208   -0.2759941 
 2535000      829    85.380221    61389.166    3.6767123   0.83933701    98.215904    98.560338   -542936.96   -852722.45    103443.98    -4214.886   -15071.057    1256.4891   0.35307716  -0.40388927            0            0   0.16876882  -0.29921295 
 2536000      829     87.05795    67279.621    3.6821918   0.83887866    98.215904    98.614189   -593579.72   -936857.39    112168.02   -4452.7257   -16716.501    1330.6557   0.36343798  -0.42784172            0            0   0.17995528  -0.32469696 
 2537000      829    106.48492    73699.796    3.7013699   0.83841624    98.215904    98.668579   -647880.09     -1029726    120660.39   -4679.6381    -18165.63    1340.5782    0.3738199  -0.45249397            0            0   0.18827788   -0.3530026 
 2538000      829    117.07872    80598.107    3.7136986    0.8375825    98.215904    98.766795    -717420.9   -1118661.1    128251.24   -5532.0303   -19753.941    1784.5239   0.38422544  -0.47785232            0            0   0.19458028  -0.38301476 
 2539000      829    115.07151    87627.488    3.7068493   0.83679947    98.215904    98.859215   -784461.45   -1213843.4    137293.01   -6030.9027    -21504.99    1972.6476     0.394661  -0.50393453            0            0   0.20101887  -0.41269369 
 2540000      829    127.25623    94699.035     3.739726    0.8358326    98.215904    98.973574   -850280.99   -1311624.1    147994.03    -6530.424   -23416.899    2275.4958   0.40512785  -0.53074238            0            0     0.209359  -0.44259138 
 2541000      829    145.77427       101864    3.7547945   0.83534293    98.215904    99.031591   -914684.92   -1412148.3    158656.86   -6884.1352     -25293.1    2486.5271   0.41562687   -0.5582762            0            0   0.22035095  -0.47352957 
 2542000      829    163.35228    108521.16    3.7452055   0.83435723    98.215904    99.148585   -977389.45   -1504234.7    175572.37   -7152.3732   -27243.114    2706.5407   0.42616194  -0.58654508            0            0   0.23364492  -0.50456559 
 2543000      829    178.74493    115934.67     3.739726   0.83338462    98.215904    99.264298   -1045660.9   -1608681.3    189658.66   -7441.2406   -29443.624    2962.5389   0.43674052  -0.61556781            0            0   0.24886575  -0.53507031 
 2544000      829    206.79937    123775.63    3.7794521   0.83239809    98.215904    99.381942   -1125561.9   -1711642.7    208300.13   -7883.1877   -31575.137    3589.2876   0.44737188  -0.64536743            0            0   0.26572376  -0.56582953 
 2545000      829    268.83564    131655.11    3.8068493   0.83135632    98.215904    99.506478   -1198829.6   -1823178.7    234481.25   -8065.0384   -33423.712    4129.8085   0.45806305  -0.67595932            0            0   0.28590473   -0.5979576 
 2546000      829    356.37713    140072.78    3.8013699   0.82979286    98.215904    99.693964   -1281140.7   -1939890.4    261378.15   -8452.5256    -35853.29    4771.3425   0.46881988  -0.70735439            0            0   0.31300081   -0.6298941 
 2547000      829    463.25483    149337.11    3.7753425   0.82852009    98.215904    99.847113   -1361292.7   -2078385.6    287266.39   -8223.1137   -38528.309    4746.4486   0.47964822  -0.73956253            0            0   0.34967346   -0.6619139 
 2548000      829    586.02792    158156.44    3.7657534     0.826946    98.215904    100.03717   -1434717.4   -2215065.9    314172.26   -7807.7506   -40953.113     5040.408   0.49056041  -0.77261013            0            0   0.39494986  -0.69492384 
 2549000      829    874.88132    165161.62    3.7739726   0.82533085    98.215904    100.23294     -1489659   -2329495.1    339899.55   -6945.9947   -42603.366     5316.741   0.50156607  -0.80651408            0            0   0.44819745  -0.72416264 
 2550000      829    1098.0078    172314.25          3.8   0.82355529    98.215904    100.44904   -1554935.2   -2436434.1    358824.12   -7745.4604   -45671.199      5938.92   0.51266018  -0.84125101            0            0   0.51059151  -0.74395947 
 2551000      829    1465.9523    179264.14    3.7712329   0.82183385    98.215904    100.65944   -1651649.6   -2510336.9    375215.58   -7567.4021   -46969.834    5868.3589   0.52384925  -0.87682797            0            0   0.58416502  -0.75820628 
 2552000      829    1383.9327    187802.44    3.7794521   0.81973109    98.215904    100.91765   -1772281.6   -2598873.6    423094.77   -7921.9863   -51248.638    5699.9868     0.535133  -0.91323359            0            0    0.6637262  -0.76602784 
 2553000      829    1322.0968    197438.01    3.7931507   0.81784484    98.215904    101.15041   -1902425.6   -2701399.3    450004.76   -10138.195   -56112.531     2928.249   0.54652743  -0.95049693            0            0   0.74228968  -0.78089227 
 2554000      829    1280.2111    207069.37    3.7424658   0.81529757    98.215904    101.46644   -2005816.9   -2842373.7    491601.82    -9764.321   -55037.216    6520.0686   0.55804128  -0.98862632            0            0   0.81067333    -0.811308 
 2555000      829    1536.1311    216768.08    3.7835616    0.8130716    98.215904    101.74422   -2071281.4   -3016509.7     534211.3   -10524.788   -55796.003    8141.7563   0.56969023   -1.0276449            0            0   0.87140692  -0.85419399 
 2556000      829     1589.353     230053.7     3.809589   0.81060574    98.215904    102.05373   -2202518.1     -3209708    578937.53   -12609.394   -61989.909    9460.4301   0.58144965   -1.0674789            0            0   0.93208859  -0.88924275 
 2557000      829    1331.4738    244782.12    3.8890411   0.80807361    98.215904    102.37352   -2371707.6   -3406595.7    622279.94   -15034.894   -65305.537    8929.8391    0.5932669   -1.1079969            0            0   0.99783641  -0.92683876 
 2558000      829    1456.8364    260483.76    3.8726027   0.80554225    98.215904    102.69522   -2549867.9   -3619702.7    667083.23    -15967.75   -68241.332     9474.325   0.60516147   -1.1492384            0            0    1.0697739  -0.97967685 
 2559000      829    1742.1441    275150.46    3.8739726   0.80280107    98.215904    103.04588   -2683318.6   -3856138.8    709211.85   -15459.191   -70640.428    10415.618   0.61713666   -1.1912042            0            0    1.1446074   -1.0420814 
 2560000      829    1940.6867    288196.37    3.8780822   0.80015379    98.215904     103.3868   -2843385.3   -4028295.9    762492.64   -15310.685    -74235.76    11073.631   0.62923715   -1.2339826            0            0    1.2162305   -1.0923889 
[...]
 2677000      829    51969.361    3694.1843    1.6424658   0.24412267    98.215904    338.86791   -98833.032    -99644.51    26502.906    1693.5914   -450.45515    622.91622    2.6826749   -9.5233968            0            0     44.31814    46.369786 
 2678000      829    51228.366     3173.557    1.7109589   0.24213797    98.215904    341.64546   -82257.295   -79359.249    23132.561    1682.5486   -652.58105    654.83395    2.6846008    -9.629866            0            0    44.415453    46.840463 
 2679000      829    50940.659    2047.6261    1.7191781   0.24018694    98.215904    344.42064   -38525.977   -36488.661     8653.886    1505.5974   -476.87217    990.19493    2.6863687   -9.7371409            0            0    44.507532    47.326532 
 2680000      829    51036.986     2223.242    1.6794521   0.23826871    98.215904    347.19347   -43470.726   -46761.131    8339.7298    1479.6064   -1266.6164    619.69573     2.688011   -9.8452499            0            0    44.597259    47.810456 
 2681000      829    51372.298    2626.9186    1.5917808    0.2364493    98.215904    349.86502   -53317.277   -69118.757    4280.8253    1214.9017   -1479.1414    1214.0776    2.6895321   -9.9541942            0            0    44.685849    48.283097 
 2682000      829    51357.218    2937.1512    1.6082192   0.23459317    98.215904     352.6332   -61912.926   -86351.336    11232.608      424.739   -2308.7113    2280.7823    2.6909545   -10.063989            0            0    44.775505    48.754522 
 2683000      829     50891.72    2540.6495    1.5726027   0.23276749    98.215904    355.39902   -66650.339   -52715.263    15537.672    1357.0729     313.2606    782.42415    2.6922717   -10.174626            0            0    44.863971    49.231777 
 2684000      829    50177.027    2138.8026    1.5589041   0.23097153    98.215904    358.16249   -40080.835   -50644.928    19009.836    1282.3851     685.2668     996.8046    2.6934617   -10.286085            0            0    44.943001    49.723765 
 2685000      829     50016.64    1874.1683    1.5520548   0.22920457    98.215904     360.9236   -31575.911   -37839.684    3580.9591    1482.9404    3.6524301     1150.863    2.6945136   -10.398359            0            0    45.017557    50.226463 
 2686000      829     49744.65    1416.0568    1.4863014   0.22752753    98.215904    363.58387   -13551.587   -20603.611    8581.1376    1358.7817    815.07924    1044.7327    2.6954161   -10.511441            0            0    45.089457    50.732563 
 2687000      829    49453.204     1620.368    1.4356164   0.22581552    98.215904    366.34036   -26436.076   -25896.256    10680.294    1179.5669    694.22777    1217.8979    2.6961874   -10.625345            0            0    45.161056    51.238249 
 2688000      829    49440.908    1733.2479    1.4410959   0.22413051    98.215904     369.0945   -33567.159   -28302.163    13643.966      730.186    196.79784    1872.6667     2.696835   -10.740076            0            0      45.2321    51.744482 
 2689000      829    49317.384    1546.8151    1.5054795   0.22247186    98.215904     371.8463   -25002.475    -22654.23    8735.3485    1242.0831     991.7013    1064.2721    2.6973689    -10.85564            0            0     45.30415    52.252943 
 2690000      829     49047.41    1669.9989    1.4958904   0.22089685    98.215904    374.49759   -24018.435   -35693.429    9885.4889    701.93353    444.09067    1454.8533    2.6977913   -10.972039            0            0    45.373884    52.769205 
 2691000      829    49230.185    2555.0577    1.5164384   0.21928823    98.215904    377.24478    -57779.72   -78139.429    24497.736    547.69838   -2289.1529    2409.6592    2.6980923   -11.089268            0            0    45.444243    53.286629 
 2692000      829    49112.483    2690.4712    1.5383562    0.2177042    98.215904    379.98963   -60749.877   -86048.393    18706.821    341.26819   -2090.3207    2579.9346    2.6982917   -11.207337            0            0    45.515587    53.805268 
 2693000      829    49954.132    3539.2013    1.5958904   0.21614422    98.215904    382.73214   -99576.291   -123356.47    26281.566   -724.47481   -2216.6213    2216.4849    2.6984018   -11.326253            0            0     45.59127    54.329506 
 2694000      829    50122.029    3035.4246    1.6630137   0.21460773    98.215904    385.47232   -80058.419   -102169.04    11630.451    375.01827   -1441.8431    1429.5916    2.6984133   -11.446011            0            0    45.673288    54.856971 
 2695000      829    50152.989    2351.0393    1.6273973   0.21314788    98.215904    388.11241   -47874.505   -75210.577    20031.799     395.8709   -1180.8771    2091.2904     2.698323   -11.566609            0            0    45.756766    55.390302 
 2696000      829    50327.157    2326.4439    1.6424658   0.21165604    98.215904      390.848   -50841.264   -71421.139    19238.835    648.67871   -287.44397    1229.4896    2.6981631   -11.688062            0            0    45.843368    55.920084 
 2697000      829    49921.094    3009.1635    1.6219178   0.21018618    98.215904    393.58126   -88970.647   -96912.097    22024.873    350.30179   -400.80784    1304.9549    2.6979502   -11.810374            0            0    45.930459    56.453538 
 2698000      829    50267.778    3451.3805    1.7054795   0.20873781    98.215904    396.31219   -105279.16   -120418.26    22266.859   -81.643007   -1099.7377    1440.5318    2.6977367   -11.933564            0            0    46.018734    56.995482 
 2699000      829    50367.532    2138.8418    1.6630137    0.2073611    98.215904    398.94338   -53952.662   -55355.601    15664.222    363.26072   -310.19999    1871.7899    2.6975123   -12.057622            0            0    46.110176    57.554127 
 2700000      829    50153.105     1171.304    1.5794521   0.20595363    98.215904    401.66973   -13313.642   -9067.8984    6006.5587    504.39673    1275.4584    1069.3015    2.6972187   -12.182526            0            0    46.203794    58.119524 
 2701000      829    49969.454    1242.6395    1.4452055   0.20456631    98.215904    404.39377   -14615.402    -14608.77    7130.6492    63.937753    766.49862    1646.8145    2.6968742    -12.30828            0            0    46.298039    58.684355 
 2702000      829    49913.336    981.03304    1.3219178   0.20322296    98.215904     407.0669   -3969.3705    -2729.615    1473.8827    505.40801    1288.8827    1043.2544    2.6964696   -12.434883            0            0    46.393684    59.248888 
 2703000      829    49784.104    990.16367    1.2479452   0.20188628    98.215904    409.76207   -5400.7772   -2805.5795    2063.4135     457.8819    1283.6443    1079.1286    2.6960058   -12.562333            0            0    46.490255    59.811052 
 2704000      829    49695.638    974.38518    1.2410959   0.20056818    98.215904    412.45495   -5957.1049   -1852.6925    1143.7682    524.71608    1460.9137    921.82996    2.6954848   -12.690632            0            0    46.587617    60.371622 
 2705000      829    49497.561    1141.7617    1.1767123   0.19926827    98.215904    415.14557   -15747.226   -9244.5321     5503.303    397.04759    1464.0151    1000.0002    2.6949124   -12.819781            0            0    46.685191    60.931208 
 2706000      829    49348.093    1021.0077    1.1616438   0.19798618    98.215904    417.83391    -7854.991   -6365.8609    -3499.188     422.7521    1501.0885    910.97706    2.6942913   -12.949782            0            0    46.782767    61.490541 
 2707000      829    49245.693    1234.7743    1.1712329   0.19672154    98.215904    420.51998   -18265.285   -16649.535    7691.4311   -366.50937    1500.9066    1171.8371    2.6936284   -13.080635            0            0    46.880003    62.050908 
 2708000      829    49129.396     918.2982    1.2575342   0.19547401    98.215904    423.20379   -1156.6032   -4326.8367   -587.46915    505.53337    1715.9222    749.27992    2.6929347   -13.212343            0            0    46.978899    62.612954 
 2709000      829    49205.182    1281.5866    1.2150685   0.19424323    98.215904    425.88532   -22972.828   -18534.156    7239.2346   -270.16087    1271.0984    1182.9784    2.6922082   -13.344904            0            0    47.079318     63.17546 
 2710000      829    49161.836    1232.7268    1.3013699   0.19298421    98.215904    428.66378    -18108.45    -19020.07    1452.0882    244.50157    1613.1808    820.69662    2.6914543    -13.47832            0            0    47.182744    63.736959 
 2711000      829    48959.592    943.00046     1.239726   0.19178653    98.215904    431.34071   -4687.0874   -4972.6265    861.35286    321.64084    1685.1655    760.09643    2.6906755   -13.612592            0            0    47.286193    64.302232 
 2712000      829    48783.443    939.80095    1.2191781   0.19060463    98.215904    434.01537    -3441.704   -7187.9464      400.016    249.60301    1747.7404    729.17197    2.6898749   -13.747719            0            0    47.389012    64.869611 
 2713000      829    48763.224    1014.3872    1.1547945   0.18943818    98.215904    436.68778   -7523.8876   -10841.208    2545.6523    140.48303    1651.7942    804.51349    2.6890629   -13.883701            0            0    47.492145    65.437964 
 2714000      829      48581.3    1043.4666    1.0767123    0.1882869    98.215904    439.35792   -14382.081   -8350.8312    3509.1699    261.10012    1873.1615    603.80476    2.6882411    -14.02054            0            0    47.596591    66.007281 
 2715000      829    48409.092    1003.0651    1.1178082   0.18715047    98.215904    442.02582   -8960.5887   -9522.5883    6166.1204    4.2303044    1080.4935    883.96669    2.6874111   -14.158235            0            0    47.701078    66.578953 
 2716000      829    48478.139    1013.6256    1.1643836   0.18602862    98.215904    444.69146   -10607.438   -9879.4662    3159.4913    203.70439    1975.8069    540.50385    2.6865929   -14.296787            0            0    47.807282    67.147998 
 2717000      829    48635.382    1156.1151    1.1273973   0.18492108    98.215904    447.35484   -18652.003   -16538.355    5108.3219   -465.72187    1542.5763      801.111    2.6857653   -14.436194            0            0    47.916352    67.717985 
 2718000      829     48468.14    933.22026    1.1068493   0.18382756    98.215904    450.01598   -7094.6851   -6653.7718    1620.9939    102.67071    1941.6417    495.17823    2.6849328   -14.576457            0            0    48.027458    68.290764 
 2719000      829    48281.558    943.12054    1.0589041    0.1827478    98.215904    452.67487   -6578.7319   -8320.7483    3002.0904    93.944359    993.70582    628.69916    2.6841108   -14.717577            0            0    48.137988    68.865795 
 2720000      829    48337.223    1390.5237    1.0726027   0.18168156    98.215904    455.33152   -37759.776   -23671.888    13281.565   -671.55353    1382.2552    1169.8091    2.6832907   -14.859553            0            0    48.249958    69.440951 
 2721000      829    48446.357    969.97844    1.1150685   0.18062856    98.215904    457.98592   -11270.685   -7467.6048     1481.577   -194.07294    1794.0301    532.95701    2.6824392   -15.002391            0            0    48.363987    70.017381 
 2722000      829    48333.037    807.26403    1.0863014   0.17958858    98.215904    460.63808   -4085.8141    792.63492    -182.1454   -137.58601    2033.5876    373.66129    2.6815854   -15.146089            0            0    48.480273     70.59642 
 2723000      829    48213.569    887.21885    1.0054795   0.17856137    98.215904      463.288   -8166.6125   -3982.6922    777.30773   -54.054376    2022.5921    392.63482    2.6807576   -15.290645            0            0    48.596573    71.175665 
 2724000      829    48140.905     826.6195   0.98356164   0.17754669    98.215904    465.93568   -5026.9849   -1457.6698    632.48279   -245.64659    2032.6013    353.07962    2.6799559   -15.436059            0            0    48.713556    71.754908 
 2725000      829    48132.134    896.07893   0.98767123   0.17654432    98.215904    468.58113   -9794.7518    -4719.817    1981.9242   -96.344826    1971.9574    229.87845    2.6791867   -15.582331            0            0    48.832493    72.334141 
 2726000      829     48204.65    832.71305   0.95479452   0.17555404    98.215904    471.22434   -5872.0906   -2386.1565    1724.7234   -77.989579    2052.6162    169.89834    2.6784646   -15.729457            0            0    48.954711    72.913667 
 2727000      829    48164.114    775.28153   0.96438356   0.17457563    98.215904    473.86532   -1597.6984   -576.38946     456.0093   -239.44429    1985.6275    298.48719    2.6777859   -15.877438            0            0    49.078635    73.492945 
 2728000      829    48049.663    778.94165   0.89315068   0.17360888    98.215904    476.50407   -2363.3672   -1218.9352    584.61723   -13.059189    2070.5626    108.83976    2.6771556   -16.026274            0            0    49.203131    74.073037 
 2729000      829    47902.706    818.95226   0.81369863   0.17265358    98.215904    479.14059   -7046.5398   -1844.6692    1277.0158    13.018662     2076.979    76.368027    2.6765776   -16.175962            0            0    49.327617    74.653298 
 2730000      829    47825.878    764.51456   0.83013699   0.17170953    98.215904    481.77488   -3121.1094   -192.44427    251.49487   -22.307133    2077.5259     25.13079    2.6760552   -16.326503            0            0    49.451952    75.232828 
 2731000      829    47725.185    859.31628   0.85753425   0.17077653    98.215904    484.40695   -9494.4258   -5045.2159    3154.6013    38.818381    2077.3849    -18.97352    2.6755928   -16.477894            0            0    49.576768    75.812311 
 2732000      829    47609.581    737.37074   0.89863014   0.16985439    98.215904     487.0368    -513.1936   -1050.0186    484.90546    25.792149    2079.1337   -44.203571    2.6751946   -16.630136            0            0    49.701321    76.392353 
 2733000      829    47486.475    790.22688   0.81780822   0.16894292    98.215904    489.66442   -6806.9218    -1468.034    407.94845     10.45505    2075.1583   -86.201604    2.6748648   -16.783225            0            0    49.825931    76.971881 
 2734000      829    47355.464     774.2605   0.87534247   0.16803567    98.215904    492.30822      -4524.6   -2585.7815    1061.0981    14.152953    2071.6944   -126.68449    2.6746068   -16.937162            0            0    49.950386    77.551168 
 2735000      829    47331.232     857.5724   0.94520548   0.16715482    98.215904    494.90252   -12773.754   -4066.9724    297.71526   -339.84326    2039.0822    -266.1499    2.6744245   -17.091944            0            0    50.075236    78.130144 
 2736000      829    47319.711    721.65968   0.97534247   0.16625057    98.215904    497.59431   -501.14183   -1252.7854    288.21905    50.034729    2058.4788   -207.54342    2.6743208    -17.24757            0            0    50.201686    78.709532 
 2737000      829    47163.468    735.69175   0.87945205   0.16538975    98.215904    500.18419     -3915.38   -476.77251   -859.20495   -10.263767    2036.3243   -278.09584    2.6743004    -17.40404            0            0    50.328146    79.289961 
 2738000      829     47060.36    695.76382   0.81232877   0.16453851    98.215904    502.77191   -157.04129   -168.79286    202.63526    48.463501    2040.4091   -290.94208    2.6743673    -17.56135            0            0    50.454413    79.870424 
 2739000      829    46924.014    755.06575   0.83150685   0.16366448    98.215904    505.45688   -4586.5463   -3189.6876     1425.108     20.16139    2013.0733   -352.67887    2.6745255     -17.7195            0            0    50.580069    80.450679 
 2740000      829    46824.408     699.4581   0.81780822   0.16283227    98.215904    508.04019   -1293.7157   -684.58101    316.24032    86.591774    2010.4784   -364.24885    2.6747787   -17.878486            0            0    50.705381    81.031407 
 2741000      829    46806.451    685.80582   0.74657534   0.16200917    98.215904    510.62135   -501.38296   -332.01671    172.58971    97.465632    1999.4207   -401.39689    2.6751318   -18.038308            0            0    50.831331    81.611329 
 2742000      829    46649.735    800.78615   0.80410959   0.16119501    98.215904    513.20036   -10965.381   -4452.7064    1114.3238    130.64919    1978.0551   -441.67688    2.6755882   -18.198963            0            0    50.958209    82.190678 
 2743000      829    46692.498    779.92513   0.96575342   0.16035888    98.215904    515.87628    -8380.939   -4364.9812    152.02327   -154.72013    1918.8934   -578.75728      2.67615    -18.36045            0            0     51.08565    82.771052 
 2744000      829    46581.491    676.85561   0.90821918   0.15956254    98.215904    518.45089   -749.11902   -706.52843   -85.026405    261.98112    1940.6462   -526.78904    2.6768199   -18.522767            0            0     51.21429    83.352075 
 2745000      829    46589.511    710.42527   0.88082192   0.15877472    98.215904    521.02335   -3634.5167   -1923.9459   -456.36958    14.542062    1919.5933    -524.3004    2.6776038   -18.685912            0            0     51.34296    83.933231 
 2746000      829    46530.208    778.47074    0.9260274   0.15796549    98.215904    523.69249   -8498.3399   -5690.6874    1814.3175   -1.3264811    1894.2827    -588.1805    2.6785044   -18.849882            0            0    51.472514    84.515412 
 2747000      829    46408.023     727.8842   0.88082192   0.15719464    98.215904    526.26057   -5743.6135   -3448.4612     2236.115    95.206518    1889.2578   -588.72658    2.6795256   -19.014674            0            0    51.601798    85.098638 
 2748000      829    46274.009    675.27219   0.89041096   0.15643191    98.215904    528.82651   -2112.5088   -1183.1744    1346.7304    211.47628    1842.4265   -642.52821    2.6806714   -19.180287            0            0    51.730525    85.681607 
 2749000      829    46157.778    675.79957   0.83287671    0.1556483    98.215904    531.48888   -3213.5399   -946.48381   -338.35812    263.35797    1824.1237   -682.85131    2.6819451   -19.346718            0            0    51.857915    86.265558 
 2750000      829    46058.145    733.55302    0.7260274   0.15490173    98.215904    534.05045   -9161.2578   -2787.5199    1296.2455     300.5832    1787.8358   -705.76611    2.6833504   -19.513963            0            0    51.984896    86.849719 
Loop time of 144.387 on 1 procs for 250000 steps with 829 atoms

Performance: 1495.982 tau/day, 1731.460 timesteps/s
61.6% CPU use with 1 MPI tasks x no OpenMP threads

MPI task timing breakdown:
Section |  min time  |  avg time  |  max time  |%varavg| %total
---------------------------------------------------------------
Pair    | 44.926     | 44.926     | 44.926     |   0.0 | 31.12
Neigh   | 2.207      | 2.207      | 2.207      |   0.0 |  1.53
Comm    | 1.1936     | 1.1936     | 1.1936     |   0.0 |  0.83
Output  | 1.7621     | 1.7621     | 1.7621     |   0.0 |  1.22
Modify  | 91.804     | 91.804     | 91.804     |   0.0 | 63.58
Other   |            | 2.494      |            |       |  1.73

Nlocal:        829.000 ave         829 max         829 min
Histogram: 1 0 0 0 0 0 0 0 0 0
Nghost:        71.0000 ave          71 max          71 min
Histogram: 1 0 0 0 0 0 0 0 0 0
Neighs:        995.000 ave         995 max         995 min
Histogram: 1 0 0 0 0 0 0 0 0 0

Total # of neighbors = 995
Ave neighs/atom = 1.2002413
Neighbor list builds = 5130
Dangerous builds = 0

#fin du programme

#fin du programme
Total wall time: 0:12:52
