LAMMPS (29 Oct 2020)
print " "
 
print "### Simulation de milieux granulaire ###"
### Simulation de milieux granulaire ###
print " "
 
print "## Initialisation -------------------------------------------------------------------------------------------- ##"
## Initialisation -------------------------------------------------------------------------------------------- ##
print " "
 
    include in.floes_initialisation.lmp # initialise la simulation
## Paramètre de simulations -------------------------------------------------------------------------------------------------- ##

    # paramètres de simulation
	dimension    2 # Probleme 2D
    boundary     p fm p # Condition aux limites, f condition fixe, p condition périodique

	atom_style   sphere 0 # Les particules seront des sphères (besoin de definir diamètre et masse pour chaque particule)
	newton       off # off = pas d'action/réaction
	comm_modify  vel yes

    # géométrie
	region boite block 0 100 0 100 -0.5 0.5 units box # Crée la région "boite" 100x100x1
    box tilt large
	create_box   2 boite # Crée la "boite" avec 3 type de grains
Created orthogonal box = (0.0000000 0.0000000 -0.5) to (100.00000 100.00000 0.5)
  1 by 1 by 1 MPI processor grid

	neighbor     0.2 bin # Fréquence de mise a jour de la liste des particules
	neigh_modify delay 0 #Fréquence de mise a jour de la liste des particules tout les 0 pas

    # région de l'échantillon
    region limite_sup    block INF INF 93 INF INF INF # crée une région pour la limite supérieur échantillon (cf : in.floes_shearing.lmp)
    region limite_inf    block INF INF INF 7 INF INF # crée une région pour la limite inferieur échantillon (cf : in.floes_shearing.lmp)
    region zone_de_chute block 0 100 89 100 -0.5 0.5 units box # crée une région depuis laquelle les grains vont tomber

    # Variable du problème
    variable nbr_grain equal 809
    variable dmax equal 4.0
    variable dmin equal 3.0

## Fin initilisation----------------------------------------------------------------------------------------------------------- ##

print " "
 
print "## Depot des grains ------------------------------------------------------------------------------------------ ##"
## Depot des grains ------------------------------------------------------------------------------------------ ##
print " "
 
    include     in.floes_pour.lmp # dépose des sphères dans la boite de simulation
### Depot de matériaux granulaire en 2D ###

## Definition interaction entre particules ------------------------------------------------------------------------------------ ##
# arg : contact normal, contact tangentiel, amortissement normal, amortissement tangentiel, coefficient de charge, 0 pour exclure gamma_t
	pair_style  gran/hooke/history 1E5 0.0 1E3 0.0 0.5 0 # contact Hookien entre particule sans friction
	pair_coeff	* *

## Simulation de la chute des grains ------------------------------------------------------------------------------------------ ##

    fix	gravite all gravity 1.0 spherical 0.0 -180.0 # ajoute la gravitée à la simulation

    timestep    1E-4 # pas de temps de la simulation

    fix         calcul_v_m all nve/sphere disc # Calcul la vélocité et le moment angulaire de chaque sphère

# Ajout de reaction normal sur la paroi paroie_y et plan_y
    fix	        paroiy all wall/gran hooke/history 2E7 0.0 1E4 0.0 0.5 0                 yplane 0 NULL

# Fait tomber N grains un par un, vol specifie la fraction volumique (max 0.6), one d unique / range d dans un intervale
    fix         depot all pour 860 1 100 vol 0.5 10                 diam poly 2 3.0 0.5 4.0 0.5 region zone_de_chute
Particle insertion: 56 every 46904 steps, 860 by step 703561

    fix         2Dsimu all enforce2d # Assure une simulation 2D en annulantles forces/vitesse dans la direction z

## Commande d'affichage -------------------------------------------------------------------------------------------------------- ##

    #dump		depot_img all image 500000 depot.*.jpg type type     #            zoom 1.6 adiam 4.0
    #dump_modify	depot_img pad 5

    #dump        depot_grain all movie 500 depot_grain.avi type type     #            zoom 1.6 adiam 4.0 # crée une vidéo du dépot des grains
    #dump_modify depot_grain pad 5

## Fin du dépot des particules -------------------------------------------------------------------------------------------------- ##

    run	        1500000 # 1 500 000 pas de simulations effectués
Neighbor list info ...
  update every 1 steps, delay 0 steps, check yes
  max neighbors/atom: 2000, page size: 100000
  master list distance cutoff = 4.2
  ghost atom cutoff = 4.2
  binsize = 2.1, bins = 48 48 1
  1 neighbor lists, perpetual/occasional/extra = 1 0 0
  (1) pair gran/hooke/history, perpetual
      attributes: half, newton off, size, history
      pair build: half/size/bin/newtoff
      stencil: half/bin/2d/newtoff
      bin: standard
Per MPI rank memory allocation (min/avg/max) = 5.765 | 5.765 | 5.765 Mbytes
Step Temp E_pair E_mol TotEng Press Volume 
       0            0            0            0            0            0        10000 
 1500000            0            0            0            0    87.003842        10000 
Loop time of 138.489 on 1 procs for 1500000 steps with 830 atoms

Performance: 93581.408 tau/day, 10831.181 timesteps/s
99.8% CPU use with 1 MPI tasks x no OpenMP threads

MPI task timing breakdown:
Section |  min time  |  avg time  |  max time  |%varavg| %total
---------------------------------------------------------------
Pair    | 93.066     | 93.066     | 93.066     |   0.0 | 67.20
Neigh   | 0.70944    | 0.70944    | 0.70944    |   0.0 |  0.51
Comm    | 1.4849     | 1.4849     | 1.4849     |   0.0 |  1.07
Output  | 2.9087e-05 | 2.9087e-05 | 2.9087e-05 |   0.0 |  0.00
Modify  | 39.818     | 39.818     | 39.818     |   0.0 | 28.75
Other   |            | 3.411      |            |       |  2.46

Nlocal:        830.000 ave         830 max         830 min
Histogram: 1 0 0 0 0 0 0 0 0 0
Nghost:        74.0000 ave          74 max          74 min
Histogram: 1 0 0 0 0 0 0 0 0 0
Neighs:        1956.00 ave        1956 max        1956 min
Histogram: 1 0 0 0 0 0 0 0 0 0

Total # of neighbors = 1956
Ave neighs/atom = 2.3566265
Neighbor list builds = 9964
Dangerous builds = 0

#fin du programme

    set         group all density/disc 1.0 # densité des particules = 1 (longueur^3)
Setting atom values ...
  830 settings made for density/disc

# Enleve les affichages en cours
    #undump      depot_img
    #undump      depot_grain

print " "
 
print "## Compression echantillon ----------------------------------------------------------------------------------- ##"
## Compression echantillon ----------------------------------------------------------------------------------- ##
print " "
 
# Unfix - retire les propriétés fixés dans le module précedent pour en fixer de nouvelles dans le module suivant
    unfix       2Dsimu
    unfix       paroiy # enlève les propriétés mécanique des paroies
    unfix       depot # annule le dépot des grains dmin
    unfix       gravite # annule l'effet de la gravité
    unfix       calcul_v_m # annule l'intégration temporel des grains

# Compression de l'assemblage granulaire
    include     in.floes_compression_force.lmp # compression uniaxial de l'échantillon par application de force
### Compression unixial de matériaux granulaires ###

## Modification des conditions aux limites ------------------------------------------------------------------------------------ ##

    change_box  all boundary p p p units box # change les conditions limites pour comprimer l'échantillon avec un barostat
Changing box ...
    set         group all image NULL NULL NULL  # repositionne les grains avec les nouvelles conditions limites
Setting atom values ...
  830 settings made for image

## Fix pour compression unixial ----------------------------------------------------------------------------------------------- ##

    # Début de simulation
    timestep    1E-4 # pas de temps de la simulation

    fix         temp_cste all temp/berendsen 300.0 300.0 200 # définie une température constante durant la simulation
    fix         calcul_v_m all nve/sphere disc # calcul vélocité et moment angulaire de chaque sphère

    fix         sur_amortissement all viscous 1.0 # ajout d'une force visqueuse dans l'échantillon

    fix         comp_biax all press/berendsen                 iso 5E3 5E3 500 # compression biaxiale échantillon via un barostat p = 100.0

    fix         2Dsimu all enforce2d # Assure une simulation 2D en annulant les forces/vitesse dans la direction z

## Calculs -------------------------------------------------------------------------------------------------------------------- ##

    #Calcul des contraintes dans les floes
    compute     sigma_comp all stress/atom NULL virial # calcul les contraintes dans les floes
    compute     moy_sigma_comp all reduce sum c_sigma_comp[*] # somme le tenseur de contrainte sur l'ensemble des floes

    # Calcul des voisins
    compute      voisin all contact/atom # calcul les voisins situé à d = dmin du centre d'un grain
    compute      moy_voisin all reduce ave c_voisin # moyenne du nombres de voisins

    # Déplacement des grains et des bords rigides
    compute      u_comp all displace/atom
    compute      u_moy_comp all reduce ave c_u_comp[*][*]

## Affichage ------------------------------------------------------------------------------------------------------------------- ##

    # affichage : pas_de_temps/température_échantillon/ID_grain/nbre_voisin/nrj_total_échantillon/pression_appliquée/contrainte xx,xy,yy
    thermo      5000 # affichage tout les 50 000 pas de temps
    thermo_style custom step atoms c_moy_voisin                  density press c_u_moy_comp[1] c_u_moy_comp[2]                  lx ly                  c_moy_sigma_comp[1] c_moy_sigma_comp[2] c_moy_sigma_comp[4]
    #dump		 compression_img all image 100000 compression.*.jpg type type     #             zoom 1.6 adiam 4.0
    #dump_modify	 compression_img pad 5

	#dump         compression all movie 500 compression.avi type type     #             zoom 1.6 adiam 4.0 # crée une vidéo de la compression
	#dump_modify  compression pad 5

## Fin de la compression ------------------------------------------------------------------------------------------------------ ##

	run	        500000 #  500 000  pas de simulations effectués
Neighbor list info ...
  update every 1 steps, delay 0 steps, check yes
  max neighbors/atom: 2000, page size: 100000
  master list distance cutoff = 4.2
  ghost atom cutoff = 4.2
  binsize = 2.1, bins = 48 48 1
  2 neighbor lists, perpetual/occasional/extra = 1 1 0
  (1) pair gran/hooke/history, perpetual
      attributes: half, newton off, size, history
      pair build: half/size/bin/newtoff
      stencil: half/bin/2d/newtoff
      bin: standard
  (2) compute contact/atom, occasional
      attributes: half, newton off, size
      pair build: half/size/bin/newtoff
      stencil: half/bin/2d/newtoff
      bin: standard
Per MPI rank memory allocation (min/avg/max) = 10.99 | 10.99 | 10.99 Mbytes
Step Atoms c_moy_voisin Density Press c_u_moy_comp[1] c_u_moy_comp[2] Lx Ly c_moy_sigma_comp[1] c_moy_sigma_comp[2] c_moy_sigma_comp[4] 
 1500000      830    4.0216867   0.81265148    87.010631            0            0          100          100   -1000.5077   -1096.1251  -0.80076665 
 1505000      830    4.9566265   0.92262456    4731.0944  0.021307307   0.10111216    93.851163    93.851163    -50428.58   -49968.157   -663.48579 
 1510000      830    4.9951807   0.92899987     4952.365  0.023443503   0.10589937    93.528579    93.528579   -52393.071   -51979.827   -741.31118 
 1515000      830    5.0337349   0.93024122    4990.7762  0.025911096   0.10638899    93.466155    93.466155   -52838.517   -52217.019   -1118.4166 
 1520000      830    5.0795181   0.93059713    5001.0155  0.029406054   0.10603274     93.44828     93.44828   -53083.816   -52148.512   -1069.8082 
 1525000      830    5.0722892   0.93064542    4995.9893  0.029456109   0.10290552    93.445855    93.445855    -52958.28   -52163.233   -1271.7349 
 1530000      830    5.0674699     0.930697    4999.8648  0.026955974  0.084808856    93.443266    93.443266   -52728.099   -52468.999   -1439.5672 
 1535000      830    5.0819277     0.930712    5000.9901   0.01255778  0.019193428    93.442513    93.442513   -52619.957   -52599.024   -1404.7374 
 1540000      830    5.0843373   0.93067767    4999.7153 -0.025308174  -0.15233015    93.444236    93.444236   -52611.982   -52582.795   -1276.6759 
 1545000      830    5.0746988   0.93067922    5000.5795 -0.079540517  -0.39758013    93.444158    93.444158   -52574.684    -52636.81   -1195.8193 
 1550000      830    5.0674699   0.93068359    4999.6801  -0.14433105  -0.69216426    93.443939    93.443939   -52423.811   -52766.801   -996.01918 
 1555000      830     5.086747   0.93064771    5000.9095  -0.21757556    -1.021954     93.44574     93.44574   -52618.271   -52601.893   -1132.1387 
 1560000      830    5.0795181   0.93065662    4999.9964  -0.29826646   -1.3843888    93.445293    93.445293   -52931.302   -52267.819   -1156.0059 
 1565000      830    5.0795181   0.93066987     4998.635   -0.3854603   -1.7741993    93.444628    93.444628   -52918.702   -52249.403   -1137.7395 
 1570000      830    5.0891566   0.93074973    4999.4247  -0.47799431   -2.1877714    93.440619    93.440619   -52922.861   -52252.184   -1109.5086 
 1575000      830    5.0939759   0.93076386    4999.9556  -0.57522612   -2.6222505     93.43991     93.43991   -52928.894   -52255.041   -1111.8026 
 1580000      830    5.0939759   0.93076463    5000.0003  -0.67644029   -3.0746177    93.439871    93.439871   -52930.099   -52254.072    -1112.202 
 1585000      830    5.0939759   0.93076441    5000.0048  -0.78112229   -3.5424847    93.439882    93.439882   -52930.356   -52253.379   -1112.5055 
 1590000      830    5.0939759   0.93076411    5000.0048  -0.88883146   -4.0238835    93.439897    93.439897   -52930.353   -52252.914   -1112.6833 
 1595000      830    5.0939759   0.93076382    5000.0045    -0.999196   -4.5171515    93.439911    93.439911   -52930.255   -52252.589   -1112.7804 
 1600000      830    5.0939759   0.93076355    5000.0042   -1.1118986   -5.0208697    93.439925    93.439925    -52930.12   -52252.342   -1112.8355 
 1605000      830    5.0939759    0.9307633    5000.0039   -1.2266661   -5.5338173    93.439938    93.439938   -52929.975   -52252.141   -1112.8661 
 1610000      830    5.0939759   0.93076307    5000.0035   -1.3432621   -6.0549373    93.439949    93.439949   -52929.834   -52251.972   -1112.8832 
 1615000      830    5.0939759   0.93076286    5000.0032   -1.4614807   -6.5833094     93.43996     93.43996     -52929.7   -52251.825   -1112.8929 
 1620000      830    5.0939759   0.93076267    5000.0029   -1.5811418   -7.1181288    93.439969    93.439969   -52929.577   -52251.696   -1112.8985 
 1625000      830    5.0939759    0.9307625    5000.0026   -1.7020874   -7.6586891    93.439978    93.439978   -52929.464   -52251.582   -1112.9019 
 1630000      830    5.0939759   0.93076234    5000.0024   -1.8241782   -8.2043682    93.439986    93.439986   -52929.362   -52251.479   -1112.9041 
 1635000      830    5.0939759    0.9307622    5000.0021   -1.9472914   -8.7546168    93.439993    93.439993   -52929.269   -52251.387   -1112.9056 
 1640000      830    5.0939759   0.93076208    5000.0019   -2.0713182   -9.3089485    93.439999    93.439999   -52929.185   -52251.305   -1112.9067 
 1645000      830    5.0939759   0.93076197    5000.0017   -2.1961621   -9.8669322    93.440005    93.440005    -52929.11   -52251.231   -1112.9076 
 1650000      830    5.0939759   0.93076186    5000.0016   -2.3217373   -10.428185     93.44001     93.44001   -52929.042   -52251.164   -1112.9082 
 1655000      830    5.0939759   0.93076177    5000.0014   -2.4479676   -10.992365    93.440014    93.440014    -52928.98   -52251.104   -1112.9088 
 1660000      830    5.0939759   0.93076169    5000.0013    -2.574785   -11.559169    93.440018    93.440018   -52928.925    -52251.05   -1112.9093 
 1665000      830    5.0939759   0.93076162    5000.0011   -2.7021289   -12.128326    93.440022    93.440022   -52928.875   -52251.001   -1112.9097 
 1670000      830    5.0939759   0.93076155     5000.001    -2.829945   -12.699594    93.440026    93.440026    -52928.83   -52250.957   -1112.9101 
 1675000      830    5.0939759   0.93076149    5000.0009    -2.958185   -13.272756    93.440029    93.440029    -52928.79   -52250.918   -1112.9105 
 1680000      830    5.0939759   0.93076143    5000.0008   -3.0868055    -13.84762    93.440031    93.440031   -52928.754   -52250.882   -1112.9108 
 1685000      830    5.0939759   0.93076139    5000.0007   -3.2157678   -14.424011    93.440034    93.440034   -52928.721    -52250.85    -1112.911 
 1690000      830    5.0939759   0.93076134    5000.0007   -3.3450372   -15.001774    93.440036    93.440036   -52928.691   -52250.822   -1112.9113 
 1695000      830    5.0939759    0.9307613    5000.0006   -3.4745826   -15.580771    93.440038    93.440038   -52928.665   -52250.796   -1112.9115 
 1700000      830    5.0939759   0.93076127    5000.0005   -3.6043759   -16.160876     93.44004     93.44004   -52928.641   -52250.772   -1112.9117 
 1705000      830    5.0939759   0.93076123    5000.0005   -3.7343923   -16.741977    93.440041    93.440041   -52928.619   -52250.751   -1112.9119 
 1710000      830    5.0939759    0.9307612    5000.0004   -3.8646091   -17.323975    93.440043    93.440043     -52928.6   -52250.732    -1112.912 
 1715000      830    5.0939759   0.93076118    5000.0004   -3.9950062   -17.906779    93.440044    93.440044   -52928.582   -52250.715   -1112.9122 
 1720000      830    5.0939759   0.93076115    5000.0004   -4.1255655   -18.490307    93.440045    93.440045   -52928.566     -52250.7   -1112.9123 
 1725000      830    5.0939759   0.93076113    5000.0003   -4.2562707   -19.074488    93.440046    93.440046   -52928.552   -52250.686   -1112.9124 
 1730000      830    5.0939759   0.93076111    5000.0003   -4.3871072   -19.659255    93.440047    93.440047   -52928.539   -52250.673   -1112.9125 
 1735000      830    5.0939759    0.9307611    5000.0003   -4.5180618    -20.24455    93.440048    93.440048   -52928.528   -52250.662   -1112.9126 
 1740000      830    5.0939759   0.93076108    5000.0002   -4.6491227   -20.830321    93.440049    93.440049   -52928.518   -52250.652   -1112.9127 
 1745000      830    5.0939759   0.93076107    5000.0002   -4.7802792   -21.416518     93.44005     93.44005   -52928.508   -52250.643   -1112.9127 
 1750000      830    5.0939759   0.93076106    5000.0002   -4.9115218   -22.003101     93.44005     93.44005     -52928.5   -52250.635   -1112.9128 
 1755000      830    5.0939759   0.93076104    5000.0002   -5.0428419    -22.59003    93.440051    93.440051   -52928.492   -52250.627   -1112.9129 
 1760000      830    5.0939759   0.93076103    5000.0002   -5.1742318    -23.17727    93.440051    93.440051   -52928.485    -52250.62   -1112.9129 
 1765000      830    5.0939759   0.93076102    5000.0001   -5.3056844   -23.764792    93.440052    93.440052   -52928.479   -52250.614    -1112.913 
 1770000      830    5.0939759   0.93076102    5000.0001   -5.4371936   -24.352565    93.440052    93.440052   -52928.474   -52250.609    -1112.913 
 1775000      830    5.0939759   0.93076101    5000.0001   -5.5687536   -24.940567    93.440053    93.440053   -52928.469   -52250.604   -1112.9131 
 1780000      830    5.0939759     0.930761    5000.0001   -5.7003595   -25.528773    93.440053    93.440053   -52928.464     -52250.6   -1112.9131 
 1785000      830    5.0939759     0.930761    5000.0001   -5.8320066   -26.117163    93.440053    93.440053    -52928.46   -52250.596   -1112.9131 
 1790000      830    5.0939759   0.93076099    5000.0001   -5.9636909    -26.70572    93.440054    93.440054   -52928.457   -52250.592   -1112.9132 
 1795000      830    5.0939759   0.93076099    5000.0001   -6.0954086   -27.294426    93.440054    93.440054   -52928.453   -52250.589   -1112.9132 
 1800000      830    5.0939759   0.93076098    5000.0001   -6.2271564   -27.883266    93.440054    93.440054    -52928.45   -52250.586   -1112.9132 
 1805000      830    5.0939759   0.93076098    5000.0001   -6.3589314   -28.472228    93.440054    93.440054   -52928.448   -52250.584   -1112.9132 
 1810000      830    5.0939759   0.93076097    5000.0001   -6.4907307   -29.061299    93.440054    93.440054   -52928.445   -52250.581   -1112.9132 
 1815000      830    5.0939759   0.93076097         5000   -6.6225521   -29.650468    93.440055    93.440055   -52928.443   -52250.579   -1112.9133 
 1820000      830    5.0939759   0.93076097         5000   -6.7543932   -30.239725    93.440055    93.440055   -52928.441   -52250.577   -1112.9133 
 1825000      830    5.0939759   0.93076097         5000   -6.8862522   -30.829063    93.440055    93.440055   -52928.439   -52250.576   -1112.9133 
 1830000      830    5.0939759   0.93076096         5000   -7.0181272   -31.418472    93.440055    93.440055   -52928.438   -52250.574   -1112.9133 
 1835000      830    5.0939759   0.93076096         5000   -7.1500167   -32.007946    93.440055    93.440055   -52928.436   -52250.573   -1112.9133 
 1840000      830    5.0939759   0.93076096         5000   -7.2819192   -32.597477    93.440055    93.440055   -52928.435   -52250.571   -1112.9133 
 1845000      830    5.0939759   0.93076096         5000   -7.4138335   -33.187062    93.440055    93.440055   -52928.434    -52250.57   -1112.9133 
 1850000      830    5.0939759   0.93076096         5000   -7.5457583   -33.776693    93.440055    93.440055   -52928.433   -52250.569   -1112.9133 
 1855000      830    5.0939759   0.93076095         5000   -7.6776926   -34.366367    93.440055    93.440055   -52928.432   -52250.568   -1112.9134 
 1860000      830    5.0939759   0.93076095         5000   -7.8096355    -34.95608    93.440055    93.440055   -52928.431   -52250.568   -1112.9134 
 1865000      830    5.0939759   0.93076095         5000   -7.9415861   -35.545826    93.440055    93.440055    -52928.43   -52250.567   -1112.9134 
 1870000      830    5.0939759   0.93076095         5000   -8.0735436   -36.135604    93.440056    93.440056    -52928.43   -52250.566   -1112.9134 
 1875000      830    5.0939759   0.93076095         5000   -8.2055074    -36.72541    93.440056    93.440056   -52928.429   -52250.566   -1112.9134 
 1880000      830    5.0939759   0.93076095         5000   -8.3374768   -37.315241    93.440056    93.440056   -52928.429   -52250.565   -1112.9134 
 1885000      830    5.0939759   0.93076095         5000   -8.4694513   -37.905095    93.440056    93.440056   -52928.428   -52250.564   -1112.9134 
 1890000      830    5.0939759   0.93076095         5000   -8.6014304   -38.494969    93.440056    93.440056   -52928.428   -52250.564   -1112.9134 
 1895000      830    5.0939759   0.93076095         5000   -8.7334136   -39.084861    93.440056    93.440056   -52928.427   -52250.564   -1112.9134 
 1900000      830    5.0939759   0.93076095         5000   -8.8654005    -39.67477    93.440056    93.440056   -52928.427   -52250.563   -1112.9134 
 1905000      830    5.0939759   0.93076095         5000   -8.9973907   -40.264694    93.440056    93.440056   -52928.426   -52250.563   -1112.9134 
 1910000      830    5.0939759   0.93076095         5000    -9.129384   -40.854632    93.440056    93.440056   -52928.426   -52250.563   -1112.9134 
 1915000      830    5.0939759   0.93076095         5000   -9.2613799   -41.444581    93.440056    93.440056   -52928.426   -52250.562   -1112.9134 
 1920000      830    5.0939759   0.93076094         5000   -9.3933783   -42.034542    93.440056    93.440056   -52928.426   -52250.562   -1112.9134 
 1925000      830    5.0939759   0.93076094         5000   -9.5253789   -42.624512    93.440056    93.440056   -52928.425   -52250.562   -1112.9134 
 1930000      830    5.0939759   0.93076094         5000   -9.6573815   -43.214491    93.440056    93.440056   -52928.425   -52250.562   -1112.9134 
 1935000      830    5.0939759   0.93076094         5000   -9.7893858   -43.804478    93.440056    93.440056   -52928.425   -52250.562   -1112.9134 
 1940000      830    5.0939759   0.93076094         5000   -9.9213918   -44.394472    93.440056    93.440056   -52928.425   -52250.561   -1112.9134 
 1945000      830    5.0939759   0.93076094         5000   -10.053399   -44.984473    93.440056    93.440056   -52928.425   -52250.561   -1112.9134 
 1950000      830    5.0939759   0.93076094         5000   -10.185408    -45.57448    93.440056    93.440056   -52928.425   -52250.561   -1112.9134 
 1955000      830    5.0939759   0.93076094         5000   -10.317418   -46.164491    93.440056    93.440056   -52928.425   -52250.561   -1112.9134 
 1960000      830    5.0939759   0.93076094         5000   -10.449429   -46.754508    93.440056    93.440056   -52928.424   -52250.561   -1112.9134 
 1965000      830    5.0939759   0.93076094         5000   -10.581441   -47.344529    93.440056    93.440056   -52928.424   -52250.561   -1112.9134 
 1970000      830    5.0939759   0.93076094         5000   -10.713453   -47.934553    93.440056    93.440056   -52928.424   -52250.561   -1112.9134 
 1975000      830    5.0939759   0.93076094         5000   -10.845467   -48.524581    93.440056    93.440056   -52928.424   -52250.561   -1112.9134 
 1980000      830    5.0939759   0.93076094         5000   -10.977481   -49.114612    93.440056    93.440056   -52928.424   -52250.561   -1112.9134 
 1985000      830    5.0939759   0.93076094         5000   -11.109496   -49.704646    93.440056    93.440056   -52928.424   -52250.561   -1112.9134 
 1990000      830    5.0939759   0.93076094         5000   -11.241511   -50.294682    93.440056    93.440056   -52928.424   -52250.561   -1112.9134 
 1995000      830    5.0939759   0.93076094         5000   -11.373527   -50.884721    93.440056    93.440056   -52928.424   -52250.561   -1112.9134 
 2000000      830    5.0939759   0.93076094         5000   -11.505544   -51.474762    93.440056    93.440056   -52928.424    -52250.56   -1112.9134 
Loop time of 94.7485 on 1 procs for 500000 steps with 830 atoms

Performance: 45594.404 tau/day, 5277.130 timesteps/s
99.9% CPU use with 1 MPI tasks x no OpenMP threads

MPI task timing breakdown:
Section |  min time  |  avg time  |  max time  |%varavg| %total
---------------------------------------------------------------
Pair    | 73.572     | 73.572     | 73.572     |   0.0 | 77.65
Neigh   | 0.1338     | 0.1338     | 0.1338     |   0.0 |  0.14
Comm    | 1.3055     | 1.3055     | 1.3055     |   0.0 |  1.38
Output  | 0.026563   | 0.026563   | 0.026563   |   0.0 |  0.03
Modify  | 18.07      | 18.07      | 18.07      |   0.0 | 19.07
Other   |            | 1.641      |            |       |  1.73

Nlocal:        830.000 ave         830 max         830 min
Histogram: 1 0 0 0 0 0 0 0 0 0
Nghost:        157.000 ave         157 max         157 min
Histogram: 1 0 0 0 0 0 0 0 0 0
Neighs:        2278.00 ave        2278 max        2278 min
Histogram: 1 0 0 0 0 0 0 0 0 0

Total # of neighbors = 2278
Ave neighs/atom = 2.7445783
Neighbor list builds = 757
Dangerous builds = 0

## Fin du programme ----------------------------------------------------------------------------------------------------------- ##

# Enleve les affichages en cours
    #undump      compression_img
    #undump      compression

print " "
 
print "## Relaxation de l'echantillon ------------------------------------------------------------------------------- ##"
## Relaxation de l'echantillon ------------------------------------------------------------------------------- ##
print " "
 
# Unfix
    unfix       2Dsimu
    unfix       temp_cste # annule le thermostat à la fin du dépot des grains
    unfix       comp_biax # termine la compression bixiale de l'échantillon
    unfix       calcul_v_m
    unfix       sur_amortissement #supprime le fix ajoutant une viscosité

# Uncompute - efface un calcul pour pouvoir appeler la fonction plus tard
    uncompute   voisin
    uncompute   moy_voisin

# Relaxation de l'échantillon
    include     in.floes_relaxation.lmp # seconde relaxation l'échantillon après compression
### Relaxation des matériaux granulaires ###

## Relaxation de l'échantillon ------------------------------------------------------------------------------------------------ ##

    # Début de simulation
    timestep    1E-4 # Pas de temps de la simulation

    #minimize 0.0 0.0 500000 10000

    fix         temp_cste all temp/berendsen 300.0 300.0 200 # définie une température constante durant la simulation
    fix         sur_amortissement all viscous 1.0 # ajout d'une force visqueuse dans l'échantillon

    fix         relaxation all press/berendsen                 iso 0 0 500 # relaxation de l'échantillon

    fix         calcul_v_m all nve/sphere disc # calcul vélocité et moment angulaire de chaque sphère

	fix         2Dsimu all enforce2d # assure une simulation 2D en annulant les forces/vitesse dans la direction z

    ## Calculs ----------------------------------------------------------------------------------------------------------------------- ##

    # Calcul des contraintes dans les floes
    compute      sigma_relax all stress/atom NULL virial # calcul les contraintes dans les floes
    compute      moy_sigma_relax all reduce sum c_sigma_relax[*] # somme le tenseur de contrainte sur l'ensemble des floes

    # Calcul des voisins
    compute      voisin all contact/atom # calcul les voisins situé à d = dmin du centre d'un grain
    compute      moy_voisin all reduce ave c_voisin # moyenne du nombres de voisins

    # Energie cinétique des grains
    #compute      nrj_cin all ke

    # Déplacement des grains
    compute      u_relax all displace/atom
    compute      u_moy_relax all reduce ave c_u_relax[*][*]

## Affichage ------------------------------------------------------------------------------------------------------------------- ##

    # affichage : pas_de_temps/température_échantillon/ID_grain/nbre_voisin/nrj_total_échantillon/pression_appliquée/contrainte xx,xy,yy
    thermo      5000 # affichage tout les 50 000 pas de temps

    thermo_style custom step atoms c_moy_voisin                  density press c_u_moy_relax[1] c_u_moy_relax[2]                  lx ly ke                  c_moy_sigma_relax[1] c_moy_sigma_relax[2] c_moy_sigma_relax[4]
    #dump		 relaxation_img all image 100000 relaxation.*.jpg type type     #             zoom 1.6 adiam 4.0
    #dump_modify	 relaxation_img pad 5

	#dump         relaxation all movie 500 relaxation.avi type type     #             zoom 1.6 adiam 4.0 # crée une vidéo de la relaxation
    #dump_modify relaxation pad 5

## Fin de la relaxation -------------------------------------------------------------------------------------------------------- ##

	run	        500000 #  500 000  pas de simulations effectués
Neighbor list info ...
  update every 1 steps, delay 0 steps, check yes
  max neighbors/atom: 2000, page size: 100000
  master list distance cutoff = 4.2
  ghost atom cutoff = 4.2
  binsize = 2.1, bins = 45 45 1
  2 neighbor lists, perpetual/occasional/extra = 1 1 0
  (1) pair gran/hooke/history, perpetual
      attributes: half, newton off, size, history
      pair build: half/size/bin/newtoff
      stencil: half/bin/2d/newtoff
      bin: standard
  (2) compute contact/atom, occasional
      attributes: half, newton off, size
      pair build: half/size/bin/newtoff
      stencil: half/bin/2d/newtoff
      bin: standard
Per MPI rank memory allocation (min/avg/max) = 12.61 | 12.61 | 12.61 Mbytes
Step Atoms c_moy_voisin Density Press c_u_moy_relax[1] c_u_moy_relax[2] Lx Ly KinEng c_moy_sigma_relax[1] c_moy_sigma_relax[2] c_moy_sigma_relax[4] 
 2000000      830    5.0939759   0.93076094         5000 -5.3504724e-18 2.140189e-18    93.440056    93.440056    7.1587996   -52928.424    -52250.56   -1112.9134 
 2005000      830    3.3638554   0.84878217    255.58039  -0.69539065   -3.0964117    97.848471    97.848471    9.0516426    -3069.666   -2808.6385   -133.17814 
 2010000      830    3.0457831   0.84337578    22.863207  -0.86529577   -3.8582291    98.161594    98.161594    7.3663736   -267.13895   -248.97884   -9.3756102 
 2015000      830    2.7759036   0.84270129    8.4327235  -0.99954641   -4.4589219     98.20087     98.20087    7.0697862   -95.931865   -85.880892   0.47179444 
 2020000      830    2.6072289   0.84241118    3.5524324   -1.1314656   -5.0465044    98.217778    98.217778    7.0125151   -36.381459   -32.170289   -3.3902965 
 2025000      830    2.6216867   0.84219872    3.4426466   -1.2628199   -5.6321771    98.230166    98.230166     6.993152   -34.944454   -31.114223    -0.344095 
 2030000      830    2.4963855   0.84202894    2.5613895   -1.3935771   -6.2172394    98.240069    98.240069    6.9901063   -23.392419   -22.194247 -0.027891797 
 2035000      830    2.3807229   0.84189105    1.8558826   -1.5242312   -6.8021268    98.248113    98.248113    6.9947222   -13.883491   -15.293964  -0.69243075 
 2040000      830    2.3542169   0.84178131    1.6300362   -1.6549177   -7.3867479    98.254517    98.254517    7.0034726   -12.788256   -11.123566   -0.3155335 
 2045000      830     2.313253   0.84169768    1.6369756   -1.7855606   -7.9710542    98.259398    98.259398    7.0136133   -11.659847   -12.396904   -0.4095461 
 2050000      830    2.3554217   0.84160099    1.6021716   -1.9165056   -8.5566595    98.265042    98.265042    7.0228741   -11.456248   -11.776556  -0.64769977 
 2055000      830    2.3771084   0.84151121    1.6738746   -2.0476231   -9.1427489    98.270284    98.270284     7.031926    -12.69195   -12.195255   0.37511125 
 2060000      830    2.3650602   0.84142812    1.5180951   -2.1788396   -9.7291395    98.275136    98.275136    7.0414336   -10.214211    -11.03248   -1.0519573 
 2065000      830    2.1445783   0.84135377    1.2705929   -2.3101054   -10.315826    98.279478    98.279478     7.051288   -7.3427355   -8.1269131  -0.30124384 
 2070000      830    2.1771084   0.84128629     1.110536    -2.441462   -10.902828     98.28342     98.28342    7.0609658   -5.8932787   -5.8338676  -0.15668093 
 2075000      830    2.2325301   0.84121712     1.366755   -2.5729928   -11.490333    98.287461    98.287461    7.0694608    -8.089222   -9.5873595    0.1214937 
 2080000      830    2.1084337    0.8411496     1.132814   -2.7046875   -12.078186    98.291405    98.291405    7.0778323   -5.9348498   -6.2813962  -0.10683825 
 2085000      830    2.0746988   0.84108742    1.0850291   -2.8363636   -12.666204    98.295039    98.295039    7.0854114   -5.4763338   -5.6141903  -0.17108479 
 2090000      830    1.9843373   0.84102566    1.0750212   -2.9680307   -13.254522    98.298647    98.298647    7.0922633   -5.5644976   -5.2811586  -0.46064704 
 2095000      830    2.2156627   0.84096515    1.1177338   -3.0997586   -13.843151    98.302184    98.302184    7.0990662   -6.2506025   -5.5778161  -0.17793198 
 2100000      830    2.2409639    0.8409005    1.1084423   -3.2315481   -14.432186    98.305963    98.305963    7.1051286   -5.7760235   -5.8259018  -0.27296782 
 2105000      830    2.1421687   0.84083657    1.1052619   -3.3633802    -15.02153      98.3097      98.3097    7.1102069   -5.7686045    -5.751058   -0.1405846 
 2110000      830    1.8325301   0.84078113    1.0297565    -3.495257   -15.610843    98.312941    98.312941    7.1153155   -5.0512006    -4.701406  -0.32041119 
 2115000      830    1.9722892   0.84072478   0.96570644   -3.6271874   -16.200362    98.316236    98.316236      7.12027   -3.9515103   -4.3009563  -0.27282896 
 2120000      830    1.9144578   0.84066785    1.0816708   -3.7591247   -16.790127    98.319565    98.319565    7.1245516   -5.5342772   -5.4123466 -0.00058609701 
 2125000      830    2.0807229   0.84060719    0.9376774   -3.8911588   -17.380287    98.323112    98.323112    7.1284142   -3.9507681   -3.6356195 -0.040486596 
 2130000      830     1.886747   0.84055498   0.90060685   -4.0231737   -17.970306    98.326165    98.326165    7.1321014    -3.239562   -3.4771952  -0.22214475 
 2135000      830    1.8939759   0.84049956   0.93930603   -4.1552692   -18.560659    98.329407    98.329407    7.1350436   -3.8885699      -3.7253  -0.21795261 
 2140000      830    1.8168675   0.84044391    1.0028788   -4.2874855   -19.151255    98.332662    98.332662    7.1375823   -4.5615559    -4.529902  0.012327016 
 2145000      830          1.9   0.84038917   0.94496075   -4.4197266   -19.741996    98.335865    98.335865    7.1399689   -4.1016721    -3.636983  -0.06024966 
 2150000      830    1.9373494   0.84033696   0.92065308   -4.5520367   -20.332727     98.33892     98.33892    7.1423282   -3.4275437   -3.7413308  -0.25894169 
 2155000      830    1.9855422   0.84028356   0.96910429   -4.6844464   -20.923656    98.342044    98.342044    7.1443065   -4.4035995   -3.8917885  0.069428032 
 2160000      830    1.7457831   0.84023158    0.8844988   -4.8168822   -21.514635    98.345086    98.345086    7.1462443    -3.123269   -3.1978725  -0.26200248 
 2165000      830    1.9313253   0.84018017   0.92128081   -4.9493141   -22.105629    98.348095    98.348095    7.1481355   -3.6135404   -3.5623535  -0.35120142 
 2170000      830    1.7120482   0.84012674   0.86054673   -5.0818397   -22.696816    98.351222    98.351222    7.1496671   -3.1379065   -2.6206788  -0.39177429 
 2175000      830    1.7614458    0.8400766   0.85323163   -5.2143746   -23.287937    98.354157    98.354157    7.1512623   -2.7448872   -2.8411918  -0.21578894 
 2180000      830    1.8807229   0.84002756   0.97287711    -5.346924    -23.87905    98.357028    98.357028    7.1527115   -4.1820792   -4.1913298   -0.2961127 
 2185000      830     1.753012   0.83997676   0.89479929   -5.4794941   -24.470327    98.360002    98.360002    7.1541289    -3.150897   -3.4008591   -0.2392682 
 2190000      830    1.5915663   0.83992522   0.85078428   -5.6120726   -25.061678     98.36302     98.36302    7.1553249   -2.7719147   -2.7525664  -0.22060538 
 2195000      830    1.9433735   0.83987625   0.97621414   -5.7446307   -25.652937    98.365887    98.365887    7.1567017   -4.1468057   -4.3005123  -0.29644109 
 2200000      830    1.6975904   0.83982398   0.90412393   -5.8772649   -26.244392    98.368948    98.368948    7.1578608   -3.2234851   -3.5420223 0.00014606724 
 2205000      830    2.0939759   0.83977158     1.059459   -6.0099355   -26.835904    98.372018    98.372018     7.158693   -5.2954421   -5.0918499   0.18441151 
 2210000      830    2.0879518   0.83971437   0.97397288   -6.1426527   -27.427791    98.375369    98.375369    7.1592683   -4.1069262   -4.2873812  -0.20402566 
 2215000      830    1.7795181   0.83966398   0.83657705    -6.275201   -28.019439     98.37832     98.37832    7.1599863    -2.664008   -2.5259918 -0.054985378 
 2220000      830    1.9855422   0.83961431   0.94360284   -6.4077396   -28.611041     98.38123     98.38123    7.1607412   -3.6076682   -4.0780924  -0.23885448 
 2225000      830    1.7987952   0.83956356   0.88370927   -6.5403236    -29.20279    98.384203    98.384203    7.1614434   -2.8186208   -3.4701093  -0.14652285 
 2230000      830    1.9204819   0.83951287   0.89457382   -6.6728826   -29.794608    98.387174    98.387174    7.1618851   -3.0443061   -3.4982052  -0.17499352 
 2235000      830    1.6096386    0.8394632   0.81341585   -6.8053458   -30.386464    98.390085    98.390085    7.1622803   -2.1786195   -2.4711827  -0.24200448 
 2240000      830    1.9457831   0.83941261   0.91814801   -6.9378087   -30.978401     98.39305     98.39305    7.1625128    -3.423481   -3.6702098  -0.19631652 
 2245000      830     1.760241   0.83936524   0.84281934   -7.0703032   -31.570188    98.395826    98.395826    7.1630394   -2.6078084   -2.7286585 -0.082476427 
 2250000      830          1.8   0.83931529   0.89823995   -7.2028596   -32.162083    98.398753    98.398753    7.1634341   -3.1366903   -3.4931689  -0.16454011 
 2255000      830    1.6204819   0.83926577   0.87146533   -7.3353961   -32.754024    98.401656    98.401656    7.1636998   -2.7906948   -3.2151574  -0.17634375 
 2260000      830    1.6566265   0.83921554   0.95525022    -7.467856   -33.346015    98.404602    98.404602    7.1640371   -3.6316055   -4.3297965   0.54640084 
 2265000      830    1.8216867   0.83916443   0.91506798   -7.6003389   -33.938075    98.407598    98.407598    7.1641988   -3.5151708   -3.5096097 -0.048027035 
 2270000      830    1.7301205   0.83911407   0.93275025   -7.7328119   -34.530138    98.410551    98.410551    7.1643385   -3.4288294   -4.0095952  -0.11956597 
 2275000      830    1.8192771    0.8390605   0.99758733   -7.8653042   -35.122405    98.413693    98.413693    7.1641567    -4.595475   -4.3578684   0.13626551 
 2280000      830    1.6843373   0.83900721   0.91372187   -7.9977749   -35.714702    98.416818    98.416818    7.1642144   -3.4847721   -3.5125611 -0.0044771254 
 2285000      830    2.1301205   0.83895035    1.0694488   -8.1302586    -36.30723    98.420153    98.420153    7.1639929   -5.1173857    -5.516662 -0.0087097366 
 2290000      830    2.0746988   0.83889527   0.99091027   -8.2627319    -36.89974    98.423384    98.423384    7.1639463   -4.1005744   -4.7019159   0.19962896 
 2295000      830    1.9385542   0.83884444    0.8969683   -8.3951264   -37.492064    98.426366    98.426366    7.1639088   -3.0881052   -3.5228824  -0.19103142 
 2300000      830    1.8939759   0.83879386   0.95385522   -8.5274652   -38.084452    98.429334    98.429334    7.1636734   -3.9634285   -3.9773394 -0.087259846 
 2305000      830    1.9686747   0.83874298   0.94308657   -8.6597425   -38.676916    98.432319    98.432319    7.1635907   -3.7984862   -3.8923846 -0.043960637 
 2310000      830     1.846988   0.83869237   0.85769552   -8.7919795   -39.269394    98.435289    98.435289    7.1636769   -2.8773319   -2.8209673 -0.042025166 
 2315000      830    1.8759036   0.83864261   0.95371804    -8.924194   -39.861793    98.438209    98.438209    7.1638508   -3.7397533   -4.2014728    0.1109868 
 2320000      830    1.8385542   0.83859075   0.88087231   -9.0564548   -40.454325    98.441253    98.441253    7.1639064   -2.9503191   -3.2911496  0.054094883 
 2325000      830    1.7361446   0.83854256   0.95519436   -9.1886852   -41.046649    98.444081    98.444081    7.1641894    -4.080237   -3.8974448  0.027348182 
 2330000      830    1.8975904   0.83849242   0.98382076    -9.320925   -41.639083    98.447024    98.447024    7.1644633   -4.0043118   -4.6426902  0.013583318 
 2335000      830    1.7289157   0.83844198   0.88020383    -9.453157   -42.231551    98.449985    98.449985    7.1646799   -3.1001389   -3.1278199 -0.040445105 
 2340000      830    2.0120482   0.83838784    1.0178793   -9.5853976    -42.82427    98.453165    98.453165    7.1643173   -4.4570707   -4.9885849 -0.090765247 
 2345000      830    1.9783133   0.83833496   0.91117539   -9.7175748   -43.416998     98.45627     98.45627    7.1643696   -3.3346959    -3.619947  -0.15211018 
 2350000      830    1.7891566   0.83828304   0.89809755    -9.849763   -44.009659    98.459318    98.459318     7.164479   -3.2082142   -3.4420346 -0.070805389 
 2355000      830    1.8060241   0.83822961   0.96769546   -9.9820138    -44.60244    98.462457    98.462457    7.1642669   -4.0421137   -4.2357802 -0.069964514 
 2360000      830    2.0578313   0.83817621    1.0076863   -10.114258   -45.195227    98.465593    98.465593    7.1641962   -4.4868162   -4.7269476 -0.059472143 
 2365000      830    1.9361446    0.8381256   0.96762145   -10.246483   -45.787824    98.468566    98.468566    7.1643953   -3.9132384   -4.3654748  0.078749019 
 2370000      830    1.6301205   0.83807518   0.83756083    -10.37868   -46.380441    98.471528    98.471528    7.1646704   -2.5867944   -2.6538101  0.047648535 
 2375000      830    1.8795181    0.8380246   0.95344343   -10.510858   -46.973067    98.474499    98.474499    7.1648994   -3.9040459   -4.0450888   0.10359997 
 2380000      830    1.8614458    0.8379752   0.89810338   -10.643012   -47.565611    98.477402    98.477402    7.1653164   -3.5339987   -3.1224185  -0.12694515 
 2385000      830    2.0168675   0.83792497    1.0841431   -10.775175   -48.158158    98.480354    98.480354    7.1657496   -5.5799195   -5.4245625  -0.21426832 
 2390000      830    1.7144578   0.83787471   0.93155068   -10.907316   -48.750747    98.483307    98.483307    7.1662137   -3.7728181   -3.6660183  0.080364412 
 2395000      830    1.7795181   0.83782261   0.90426808   -11.039465   -49.343467    98.486369    98.486369    7.1663986   -3.2691881   -3.5329712 -0.0037453876 
 2400000      830    1.9506024   0.83777043   0.94236568   -11.171599   -49.936221    98.489437    98.489437    7.1666892   -3.7593079   -3.9340762  0.045594937 
 2405000      830    1.4819277   0.83772126     0.890198   -11.303666   -50.528737    98.492327    98.492327    7.1672016   -3.0838487   -3.3903698  -0.17276884 
 2410000      830    1.9156627   0.83766866   0.98651785   -11.435757   -51.121509    98.495419    98.495419    7.1669159   -4.4897284   -4.2380121 -0.0019985612 
 2415000      830    1.8542169   0.83761508   0.92282258   -11.567857   -51.714479    98.498569    98.498569    7.1668568   -3.6772737   -3.5629772 -0.050360294 
 2420000      830    1.8614458   0.83756542   0.86918069   -11.699881   -52.307166    98.501489    98.501489    7.1671116   -2.9296601   -3.0572333  -0.17585108 
 2425000      830    1.6289157   0.83751691   0.83556388   -11.831904   -52.899788    98.504342    98.504342    7.1673566   -2.5917722   -2.6098142  -0.22501466 
 2430000      830    1.8253012   0.83746636   0.94432111   -11.963992   -53.492616    98.507315    98.507315    7.1668459   -3.8405221   -3.9062687  -0.46047116 
 2435000      830    1.8614458   0.83741599   0.90500651   -12.096105   -54.085475    98.510277    98.510277    7.1666553   -3.3799022   -3.4492734 -0.077399128 
 2440000      830    1.5493976   0.83736979   0.81786431   -12.228134   -54.678063    98.512994    98.512994    7.1669117   -2.3954395    -2.396563  -0.22413149 
 2445000      830    1.6421687   0.83732047   0.88924161   -12.360228    -55.27086    98.515896    98.515896    7.1667205   -3.2006702   -3.2621039  -0.20572567 
 2450000      830    1.8819277   0.83727028    1.0104827   -12.492386   -55.863769    98.518849    98.518849    7.1663458   -4.4478106   -4.8525305 -0.048859014 
 2455000      830    1.6831325   0.83722126    0.9604957   -12.624533   -56.456633    98.521733    98.521733    7.1662165   -4.1281178   -4.0047072  -0.10885667 
 2460000      830     1.686747   0.83717076   0.84620637   -12.756728   -57.049655    98.524704    98.524704    7.1658468   -2.7030995    -2.758519 -0.034605842 
 2465000      830     1.673494   0.83712272   0.84268912   -12.888947    -57.64251    98.527531    98.527531    7.1658475   -2.6152179   -2.7652595 -0.097947082 
 2470000      830    1.8349398   0.83707224   0.87320607   -13.021212   -58.235513    98.530502    98.530502    7.1656336   -3.0500288   -3.0459605  -0.07153665 
 2475000      830    1.9096386   0.83702271   0.98007313   -13.153444   -58.828442    98.533417    98.533417     7.165456   -4.1152373   -4.4824473  -0.29423887 
 2480000      830    1.4771084    0.8369729   0.89021919   -13.285709   -59.421436    98.536349    98.536349    7.1654303   -3.6748925   -2.8219696  0.011955585 
 2485000      830    1.8759036   0.83692164   0.92703503   -13.418014   -60.014536    98.539367    98.539367    7.1652944    -3.722064   -3.6377483 0.0096239253 
 2490000      830    1.5795181   0.83687011   0.91035336   -13.550384   -60.607808      98.5424      98.5424    7.1646774   -3.5104741   -3.4615726   -0.2607477 
 2495000      830    1.8783133   0.83682092   0.90070825   -13.682736   -61.200925    98.545297    98.545297    7.1645914   -3.3933801    -3.354391 -0.097499823 
 2500000      830    1.7168675   0.83677364   0.90448519   -13.815081   -61.793886    98.548081    98.548081    7.1646629   -3.4734217   -3.3637844   0.11383172 
Loop time of 62.0958 on 1 procs for 500000 steps with 830 atoms

Performance: 69569.900 tau/day, 8052.072 timesteps/s
99.9% CPU use with 1 MPI tasks x no OpenMP threads

MPI task timing breakdown:
Section |  min time  |  avg time  |  max time  |%varavg| %total
---------------------------------------------------------------
Pair    | 40.97      | 40.97      | 40.97      |   0.0 | 65.98
Neigh   | 0.13419    | 0.13419    | 0.13419    |   0.0 |  0.22
Comm    | 1.2594     | 1.2594     | 1.2594     |   0.0 |  2.03
Output  | 0.027226   | 0.027226   | 0.027226   |   0.0 |  0.04
Modify  | 18.076     | 18.076     | 18.076     |   0.0 | 29.11
Other   |            | 1.629      |            |       |  2.62

Nlocal:        830.000 ave         830 max         830 min
Histogram: 1 0 0 0 0 0 0 0 0 0
Nghost:        143.000 ave         143 max         143 min
Histogram: 1 0 0 0 0 0 0 0 0 0
Neighs:        1972.00 ave        1972 max        1972 min
Histogram: 1 0 0 0 0 0 0 0 0 0

Total # of neighbors = 1972
Ave neighs/atom = 2.3759036
Neighbor list builds = 739
Dangerous builds = 0


#fin du programme

# Enleve les affichages en cours
    #undump      relaxation_img
    #undump      relaxation

print " "
 
print "## Cisaillement de l'echantillon ----------------------------------------------------------------------------- ##"
## Cisaillement de l'echantillon ----------------------------------------------------------------------------- ##
print " "
 
# Unfix
    unfix       2Dsimu
    unfix       temp_cste
    unfix       relaxation # arrête la relaxation de l'échantillon
    unfix       calcul_v_m
    unfix       sur_amortissement

# Uncompute - efface un calcul pour pouvoir appeler la fonction plus tard
    uncompute   voisin
    uncompute   moy_voisin

    include     in.floes_shearing.lmp # cisaille l'échantillon a vitesse constante et sous force constante
### Compression unixial de matériaux granulaires ###

## Modification de la simulation ------------------------------------------------------------------------------------------------ ##

# Modification des conditions aux limites
    change_box   all triclinic # changement de type de boite de simulation
Changing box ...
  triclinic box = (0.72595959 0.72595959 -0.5) to (99.274040 99.274040 0.5) with tilt (0.0000000 0.0000000 0.0000000)
    set          group all image NULL NULL NULL # repositionne les grains avec les nouvelles conditions aux limites
Setting atom values ...
  830 settings made for image

## Ajout de la friction grain/grain grain/mur mur/grain ------------------------------------------------------------------------- ##

    pair_style   gran/hooke/history 2E7 1E7 1E4 1E4 0.5 0 # contact Hookien entre particule sans friction
    pair_coeff	 * *

## Création des groupes ------------------------------------------------------------------------------------------------------- ##

# Calcul du diamètre des grains

    # Ce bloc s'assure que la valeur calcul est bien actualisée
    compute      dgrain all property/atom diameter # calcul le diamètre des grains -> output = scalaire / grain
    compute      scal_dgrain all reduce ave c_dgrain # calcul du diamètre moyen des particules
    thermo_style custom step pxx pyy pxy c_scal_dgrain # modification de l'affichage
    run          0
Neighbor list info ...
  update every 1 steps, delay 0 steps, check yes
  max neighbors/atom: 2000, page size: 100000
  master list distance cutoff = 4.2
  ghost atom cutoff = 4.2
  binsize = 2.1, bins = 47 47 1
  1 neighbor lists, perpetual/occasional/extra = 1 0 0
  (1) pair gran/hooke/history, perpetual
      attributes: half, newton off, size, history
      pair build: half/size/bin/newtoff
      stencil: half/bin/2d/newtoff
      bin: standard
Per MPI rank memory allocation (min/avg/max) = 13.23 | 13.23 | 13.23 Mbytes
Step Pxx Pyy Pxy c_scal_dgrain 
 2500000    20.673233    22.458128  0.017456553    3.4951807 
Loop time of 9.53674e-07 on 1 procs for 0 steps with 830 atoms

0.0% CPU use with 1 MPI tasks x no OpenMP threads

MPI task timing breakdown:
Section |  min time  |  avg time  |  max time  |%varavg| %total
---------------------------------------------------------------
Pair    | 0          | 0          | 0          |   0.0 |  0.00
Neigh   | 0          | 0          | 0          |   0.0 |  0.00
Comm    | 0          | 0          | 0          |   0.0 |  0.00
Output  | 0          | 0          | 0          |   0.0 |  0.00
Modify  | 0          | 0          | 0          |   0.0 |  0.00
Other   |            | 9.537e-07  |            |       |100.00

Nlocal:        830.000 ave         830 max         830 min
Histogram: 1 0 0 0 0 0 0 0 0 0
Nghost:        144.000 ave         144 max         144 min
Histogram: 1 0 0 0 0 0 0 0 0 0
Neighs:        1972.00 ave        1972 max        1972 min
Histogram: 1 0 0 0 0 0 0 0 0 0

Total # of neighbors = 1972
Ave neighs/atom = 2.3759036
Neighbor list builds = 0
Dangerous builds = 0

# Stockage des grains par groupe de taille
    variable     d_min atom "c_dgrain == 3.0"
    group        dgrain_min variable d_min # place tout les grains d = dmin dans ce groupe
419 atoms in group dgrain_min
    variable     d_max atom "c_dgrain == 4.0"
    group        dgrain_max variable d_max # place tout les grains d = dmax dans ce groupe
411 atoms in group dgrain_max

    # Crée le groupe par taille de grains
    group        dfloes_min subtract all dgrain_max
419 atoms in group dfloes_min
    group        dfloes_max subtract all dgrain_min
411 atoms in group dfloes_max

## Cisaillement de l'échantillon ------------------------------------------------------------------------------------------------ ##

    # Début de simulation
    timestep     1E-5 # Pas de temps de la simulation

    fix          temp_cste all temp/berendsen 0.0 0.0 200 # définie une température constante durant la simulation

    fix          sur_amortissement all viscous 1 # ajout d'une force visqueuse dans l'échantillon

    # Definition du cisaillement par vitesse contante imposée par inclinaison de la boite de cisaillement et compression unixiale
    fix          cisaillement all deform 1 xy erate 0.01 remap v units box
    fix          comp_floes all nph/sphere                  y 1E6 1E6 10 disc
                 #couple none disc

    fix          calcul_v_m all nve/sphere disc # calcul vélocité et moment angulaire de chaque sphère

    fix          2Dsimu all enforce2d # assure une simulation 2D en annulant les forces/vitesse dans la direction z

## Calculs ----------------------------------------------------------------------------------------------------------------------- ##

    # Calcul des voisins
    compute      voisin all contact/atom # calcul les voisins situé à d = dmin du centre d'un grain
    compute      moy_voisin all reduce ave c_voisin # moyenne du nombres de voisins

    # Calcul des contraintes du système
    compute      sigma all stress/atom NULL virial # calcul les contraintes cisaillantes
    compute      moy_sigma all reduce sum c_sigma[*] # somme le tenseur de contrainte sur l'ensemble des atomes

    # Déplacement des grains
    compute      u_floes all displace/atom
    compute      u_moy_floes all reduce ave c_u_floes[*][*]

## Commande-d'affichage ---------------------------------------------------------------------------------------------------------- ##

    thermo       1000 # affichage tout les 1000 pas de temps

    # affichage des données du probleme
    thermo_style custom                  step atoms temp press                  c_moy_voisin density                  lx ly                  c_moy_sigma[1] c_moy_sigma[2] c_moy_sigma[4]                  c_u_moy_floes[1] c_u_moy_floes[2]

    # Sorties graphiques
    dump		 cisaillement_img all image 100000 cisaillement.*.jpg type type                  zoom 1.6 adiam 4.0
    dump_modify	 cisaillement_img pad 5

    #dump         evo_voisin all custom 1000 voisin.txt id c_voisin # affiche le nombre de voisin / grain dans un fichier texte pour d = dmin

    #dump         shearing all movie 500 shearing.avi type type     #             zoom 1.2 adiam 4.0 # crée une vidéo du cisaillement
	#dump_modify  shearing pad 5

## Fin du cisaillement ------------------------------------------------------------------------------------------------------------ ##

	run          1000000 #  1 000 000 pas de simulations effectués
WARNING: One or more atoms are time integrated more than once (../modify.cpp:285)
Neighbor list info ...
  update every 1 steps, delay 0 steps, check yes
  max neighbors/atom: 2000, page size: 100000
  master list distance cutoff = 4.2
  ghost atom cutoff = 4.2
  binsize = 2.1, bins = 47 47 1
  2 neighbor lists, perpetual/occasional/extra = 1 1 0
  (1) pair gran/hooke/history, perpetual
      attributes: half, newton off, size, history
      pair build: half/size/bin/newtoff
      stencil: half/bin/2d/newtoff
      bin: standard
  (2) compute contact/atom, occasional
      attributes: half, newton off, size
      pair build: half/size/bin/newtoff
      stencil: half/bin/2d/newtoff
      bin: standard
Per MPI rank memory allocation (min/avg/max) = 14.64 | 14.64 | 14.64 Mbytes
Step Atoms Temp Press c_moy_voisin Density Lx Ly c_moy_sigma[1] c_moy_sigma[2] c_moy_sigma[4] c_u_moy_floes[1] c_u_moy_floes[2] 
 2500000      830    7.1733055    24.197854    1.6650602   0.83677364    98.548081    98.548081   -385.52699   -166.41569    525.66046            0            0 
 2501000      830    1208.6007    738964.57    4.3879518   0.90274991    98.548081    91.345826   -5559729.4    -10467077   -95847.638 -0.016470234    8.3493532 
 2502000      830    328.87719    774009.65    4.4481928   0.90553838    98.548081     91.06454     -5817882    -10919160   -81366.736  -0.03393791    8.6522888 
 2503000      830    142.00114    778546.06    4.4457831   0.90598878    98.548081    91.019269   -5865672.5    -10961471   -78507.755 -0.050209677    8.6793393 
 2504000      830     59.71828    776327.84    4.4578313   0.90580253    98.548081    91.037983   -5852199.9    -10930614   -69859.511 -0.067033901    8.6324165 
 2505000      830    31.606348    773713.23    4.4506024    0.9056349    98.548081    91.054834     -5835934    -10893509   -64197.673 -0.083618306    8.5874394 
 2506000      830    19.261277    771178.75     4.453012   0.90542507    98.548081    91.075936   -5818153.4    -10860377   -54331.316  -0.10037026    8.5376623 
 2507000      830    12.586788    769546.02    4.4506024   0.90531068    98.548081    91.087444   -5807399.9    -10837935   -48157.454  -0.11691681    8.4990177 
 2508000      830     10.60032    768282.29    4.4457831   0.90520898    98.548081    91.097677   -5797904.3    -10821967   -39510.368  -0.13358833    8.4619729 
 2509000      830    8.9404834    767640.53    4.4457831   0.90516289    98.548081    91.102316   -5793618.9    -10813218   -32625.211  -0.15015436    8.4314655 
 2510000      830    8.7035506    767256.18    4.4457831   0.90513352    98.548081    91.105273   -5790298.5    -10808763   -24970.606  -0.16677612    8.4029842 
 2511000      830    8.2454666    767180.63    4.4457831   0.90513042    98.548081    91.105585   -5789628.7    -10807856   -17875.049  -0.18333765    8.3776304 
 2512000      830    8.2061598    767228.52    4.4457831   0.90513596    98.548081    91.105027   -5789652.5    -10808767   -10426.432  -0.19992722    8.3533706 
 2513000      830    8.0366818    767379.65    4.4457831   0.90515058    98.548081    91.103555   -5790643.6    -10810777   -3488.3265  -0.21648248    8.3302319 
 2514000      830    8.0449125     767548.5    4.4457831   0.90516588    98.548081    91.102016   -5791743.9    -10813049    3761.8154  -0.23304673     8.307225 
 2515000      830    7.9666031    767716.63    4.4457831   0.90518065    98.548081    91.100529   -5793029.5    -10815130    10814.174  -0.24958613      8.28421 
 2516000      830    7.9532748    767842.01    4.4457831   0.90519184    98.548081    91.099402   -5793893.6    -10816773    18053.823  -0.26611969    8.2608257 
 2517000      830    7.9057719    767913.25    4.4433735   0.90519893    98.548081    91.098689   -5794242.7    -10817835    25285.928  -0.28262886    8.2370128 
 2518000      830    7.8799375    767939.39    4.4433735   0.90520263    98.548081    91.098316   -5794252.8    -10818322    32575.746  -0.29913148    8.2128517 
 2519000      830    7.8387952    767933.16    4.4481928   0.90520378    98.548081    91.098201   -5794075.6    -10818344    39778.288  -0.31562128    8.1884421 
 2520000      830    7.8109712    767899.39    4.4457831   0.90520282    98.548081    91.098297   -5793691.5    -10818015    46998.543  -0.33210297    8.1638339 
 2521000      830    7.7691765    767852.16    4.4457831   0.90520084    98.548081    91.098497   -5793249.3    -10817472     54143.17  -0.34857029    8.1391564 
 2522000      830    7.7304276    767803.24    4.4481928   0.90519935    98.548081    91.098647   -5792788.5    -10816902    61123.585  -0.36502265    8.1145875 
 2523000      830    7.7050159     767759.8    4.4457831   0.90519815    98.548081    91.098767   -5792394.2    -10816378    68071.756  -0.38146452    8.0901035 
 2524000      830    7.6749646    767728.16    4.4457831   0.90519803    98.548081     91.09878   -5792100.6    -10815990     75093.81  -0.39788797    8.0657961 
 2525000      830    7.6461457    767709.34    4.4409639    0.9051986    98.548081    91.098723   -5791928.6    -10815744    82153.823  -0.41429659    8.0416202 
 2526000      830    7.6135542    767706.81    4.4409639   0.90520036    98.548081    91.098545   -5791927.4    -10815659     89174.81  -0.43069658    8.0176346 
 2527000      830     7.582234    767715.98    4.4409639   0.90520299    98.548081    91.098281   -5792047.1    -10815689    96149.401  -0.44708658    7.9938008 
 2528000      830    7.5522761    767734.46    4.4409639   0.90520632    98.548081    91.097946   -5792261.6    -10815813    103110.55  -0.46346697    7.9700994 
 2529000      830    7.5184406    767754.18    4.4433735   0.90520865    98.548081    91.097711   -5792490.3    -10815968    110045.34  -0.47983692    7.9463322 
 2530000      830    7.4954447    767776.93    4.4385542   0.90521033    98.548081    91.097542   -5792782.8    -10816137    117042.89   -0.4961964    7.9225367 
 2531000      830      7.46219     767801.2    4.4409639   0.90521181    98.548081    91.097392     -5793097    -10816321    124052.47   -0.5125453    7.8987686 
 2532000      830    7.4325839    767824.33    4.4385542   0.90521326    98.548081    91.097247   -5793433.4    -10816459    131050.94  -0.52888543    7.8750444 
 2533000      830    7.4038456    767841.44    4.4361446   0.90521395    98.548081    91.097177   -5793730.3    -10816519    138043.54  -0.54521491    7.8512814 
 2534000      830    7.3741374    767851.84    4.4385542   0.90521414    98.548081    91.097158   -5793960.3    -10816511    145039.35  -0.56153421    7.8275066 
 2535000      830    7.3374633    767857.45    4.4385542   0.90521418    98.548081    91.097154   -5794117.9    -10816474    151977.36  -0.57784437    7.8037634 
 2536000      830    7.3023488    767847.14    4.4385542   0.90521334    98.548081    91.097239   -5793995.4    -10816389    158774.41  -0.59414771    7.7799643 
 2537000      830    7.2757394       767837    4.4385542   0.90521267    98.548081    91.097306   -5793885.9    -10816291    165540.35  -0.61044078    7.7562346 
 2538000      830    7.2482431    767824.64    4.4361446   0.90521147    98.548081    91.097427   -5793733.3    -10816198    172319.96  -0.62672374    7.7324911 
 2539000      830    7.2165394    767814.44    4.4385542    0.9052098    98.548081    91.097595   -5793614.2    -10816128    179118.35  -0.64299685    7.7087413 
 2540000      830    7.1872875    767809.99    4.4361446   0.90520874    98.548081    91.097701   -5793579.6    -10816086    185897.81  -0.65926106    7.6851133 
 2541000      830    7.1585836    767810.31    4.4337349   0.90520801    98.548081    91.097775   -5793606.9    -10816079    192654.82  -0.67551495    7.6615725 
 2542000      830    7.1282065    767813.22    4.4337349   0.90520751    98.548081    91.097826   -5793663.7    -10816094    199407.52  -0.69175326    7.6381064 
 2543000      830    7.1011301    767816.14    4.4361446   0.90520668    98.548081    91.097909   -5793728.9    -10816107    206186.18  -0.70797401    7.6146493 
 2544000      830    7.0744256    767828.77    4.4337349   0.90520674    98.548081    91.097903   -5793937.7    -10816171    212973.12  -0.72418422    7.5913438 
 2545000      830    7.0459648    767846.26    4.4337349   0.90520694    98.548081    91.097883   -5794225.5    -10816258    219765.56  -0.74038442    7.5681045 
 2546000      830    7.0174172    767863.32    4.4313253   0.90520716    98.548081    91.097861   -5794526.7    -10816321    226555.88  -0.75657505    7.5449151 
 2547000      830    6.9845354    767878.87     4.426506    0.9052074    98.548081    91.097837   -5794808.4    -10816372    233304.47  -0.77275443    7.5217759 
 2548000      830    6.9485623    767888.15     4.426506   0.90520791    98.548081    91.097785   -5794984.5    -10816387    239911.94  -0.78891748    7.4987163 
 2549000      830    6.9248954    767896.54     4.426506   0.90520855    98.548081    91.097721   -5795137.6    -10816404    246491.49  -0.80507121    7.4757197 
 2550000      830    6.8933766    767903.07    4.4289157   0.90520898    98.548081    91.097678   -5795298.3    -10816377    253086.46  -0.82121571    7.4527452 
 2551000      830     6.869482     767911.2     4.426506   0.90520957    98.548081    91.097618   -5795441.8    -10816398    259661.07  -0.83735076    7.4298384 
 2552000      830    6.8399301    767914.36    4.4289157   0.90520921    98.548081    91.097654     -5795600    -10816315    266235.75   -0.8534766    7.4068647 
 2553000      830    6.8075095    767912.91     4.426506   0.90520907    98.548081    91.097668   -5795615.8    -10816270    272700.42  -0.86959445    7.3839646 
 2554000      830    6.7823614    767912.05     4.426506   0.90520899    98.548081    91.097677   -5795680.7    -10816189    279158.84  -0.88570278    7.3611173 
 2555000      830     6.753975    767917.73     4.426506   0.90520892    98.548081    91.097684   -5795815.6    -10816178    285593.36  -0.90180233     7.338319 
 2556000      830    6.7268706    767923.23    4.4289157   0.90520769    98.548081    91.097807   -5796011.2    -10816124    292041.16  -0.91789296     7.315431 
 2557000      830    6.7004707    767929.13    4.4289157   0.90520654    98.548081    91.097924   -5796122.5    -10816162    298474.08  -0.93397337    7.2925989 
 2558000      830    6.6701139    767932.88    4.4289157   0.90520555    98.548081    91.098023   -5796192.8    -10816190    304952.91  -0.95003931    7.2698333 
 2559000      830    6.6370865    767932.28    4.4289157   0.90520477    98.548081    91.098101   -5796108.4    -10816276    311342.15   -0.9660888    7.2471392 
 2560000      830    6.6113077     767927.2    4.4289157   0.90520395    98.548081    91.098184   -5795969.6    -10816320    317671.41  -0.98213011    7.2244863 
 2561000      830    6.5862968     767902.3    4.4240964   0.90520162    98.548081    91.098419   -5795425.6    -10816368    323988.26  -0.99814313    7.2017025 
 2562000      830    6.5578272    767872.78    4.4216867   0.90519897    98.548081    91.098685   -5794762.5    -10816441    330306.83   -1.0141419    7.1789297 
 2563000      830      6.52527    767841.09    4.4216867   0.90519591    98.548081    91.098993   -5794063.2    -10816511    336472.27   -1.0301332    7.1561524 
 2564000      830    6.5021518    767808.27    4.4216867   0.90519291    98.548081    91.099295   -5793365.9    -10816554    342639.93   -1.0461157    7.1334294 
 2565000      830    6.4744998    767779.67    4.4240964   0.90519001    98.548081    91.099586   -5792786.4    -10816568    348830.26   -1.0620878    7.1107643 
 2566000      830    6.4498795    767754.31    4.4240964   0.90518721    98.548081    91.099868   -5792280.4    -10816577    355022.25   -1.0780501    7.0881571 
 2567000      830    6.4167196    767736.03     4.426506   0.90518484    98.548081    91.100107   -5791953.3    -10816552    361142.12   -1.0940051    7.0656459 
 2568000      830    6.3840617    767727.18     4.426506    0.9051837    98.548081    91.100222   -5791811.9    -10816523    367139.69   -1.1099511    7.0433259 
 2569000      830    6.3573413     767714.4     4.426506   0.90518291    98.548081    91.100301     -5791571    -10816502    372975.07   -1.1258888    7.0210945 
 2570000      830    6.3279979    767693.29     4.426506   0.90518132    98.548081    91.100461   -5791165.8    -10816480    378690.16   -1.1418171     6.998812 
 2571000      830    6.3018776     767672.6     4.426506   0.90517977    98.548081    91.100618   -5790705.9    -10816521     384340.8   -1.1577373     6.976579 
 2572000      830    6.2772994    767652.93    4.4289157   0.90517847    98.548081    91.100748   -5790253.8    -10816571     389973.5    -1.173648    6.9544229 
 2573000      830    6.2481205    767639.99     4.426506    0.9051774    98.548081    91.100856   -5789937.5    -10816627    395512.47   -1.1895501    6.9323376 
 2574000      830    6.2247974    767634.43     4.426506    0.9051777    98.548081    91.100826   -5789756.8    -10816682    401116.01   -1.2054366    6.9104634 
 2575000      830    6.1986841    767628.22    4.4289157   0.90517847    98.548081    91.100748   -5789633.3    -10816657    406792.39   -1.2213111     6.888692 
 2576000      830    6.1736025    767626.23    4.4289157    0.9051799    98.548081    91.100604   -5789588.3    -10816633    412458.52   -1.2371779    6.8670435 
 2577000      830    6.1472822    767625.11    4.4361446   0.90518141    98.548081    91.100452   -5789554.5    -10816615    418074.33   -1.2530357     6.845449 
 2578000      830    6.1255614     767635.8    4.4337349   0.90518373    98.548081    91.100219   -5789739.2    -10816619    423704.07   -1.2688852    6.8239977 
 2579000      830    6.1097683    767654.39    4.4337349   0.90518573    98.548081    91.100017     -5790144    -10816579    429494.71   -1.2847151    6.8025556 
 2580000      830    6.0911631    767667.49    4.4337349   0.90518735    98.548081    91.099854   -5790478.4    -10816499    435505.31   -1.3005223     6.781117 
 2581000      830    6.0627935    767686.53    4.4313253   0.90518902    98.548081    91.099686   -5790918.2    -10816440    441574.63   -1.3163217    6.7597283 
 2582000      830    6.0522103    767724.11    4.4337349   0.90519178    98.548081    91.099409   -5791704.8    -10816416    447793.89    -1.332112    6.7385121 
 2583000      830    6.0187543    767759.85    4.4337349   0.90519432    98.548081    91.099153   -5792469.1    -10816378    454033.91   -1.3478935    6.7173147 
 2584000      830    6.0009471    767796.96    4.4337349   0.90519711    98.548081    91.098872   -5793237.6    -10816362    460243.69   -1.3636668    6.6961904 
 2585000      830    5.9739992    767828.64    4.4289157   0.90519886    98.548081    91.098696   -5793963.4    -10816289    466542.87   -1.3794073    6.6749898 
 2586000      830    5.9528779    767866.95     4.426506   0.90520066    98.548081    91.098515   -5794796.1    -10816252    472892.26    -1.395138    6.6538398 
 2587000      830    5.9151229       767903     4.426506   0.90520296    98.548081    91.098283   -5795520.8    -10816265    479085.23   -1.4108586    6.6327932 
 2588000      830     5.888258    767936.03     4.426506   0.90520636    98.548081    91.097942   -5796151.2    -10816287     485084.1   -1.4265674    6.6119228 
 2589000      830    5.8634645    767968.01     4.426506   0.90520962    98.548081    91.097613   -5796769.2    -10816301     491061.7   -1.4422668    6.5910805 
 2590000      830    5.8294914    767988.15    4.4289157   0.90521261    98.548081    91.097312   -5797167.5    -10816283    496964.76   -1.4579509    6.5702467 
 2591000      830    5.8045796    767996.86    4.4289157   0.90521507    98.548081    91.097065   -5797328.2    -10816266    502726.71     -1.47362    6.5493923 
 2592000      830    5.7834285    768005.83     4.426506   0.90521766    98.548081    91.096804   -5797497.4    -10816243    508486.07   -1.4892803    6.5285984 
 2593000      830        5.758    768012.34     4.426506   0.90522011    98.548081    91.096558   -5797641.4    -10816195    514231.02   -1.5049327    6.5078301 
 2594000      830     5.743991    768015.78     4.426506   0.90522263    98.548081    91.096304   -5797833.6    -10816031       519907   -1.5205767    6.4871136 
 2595000      830    5.7178306    768023.58    4.4240964   0.90522441    98.548081    91.096125   -5797989.4    -10816012    525743.61   -1.5362112    6.4663527 
 2596000      830     5.696375    768047.41    4.4216867   0.90522718    98.548081    91.095846   -5798528.8    -10815937    531675.95   -1.5518257     6.445751 
 2597000      830    5.6713504    768071.01    4.4216867   0.90522982    98.548081     91.09558   -5799064.8    -10815863    537620.92   -1.5674325    6.4251781 
 2598000      830    5.6494324     768099.4    4.4240964   0.90523303    98.548081    91.095258   -5799678.9    -10815804    543577.67   -1.5830244    6.4047148 
 2599000      830    5.6369411    768141.84    4.4240964   0.90523744    98.548081    91.094813   -5800541.3    -10815779    549604.09   -1.5985919    6.3844396 
 2600000      830    5.6063365    768187.78     4.426506   0.90524231    98.548081    91.094323   -5801452.3    -10815772    555597.85   -1.6141527    6.3642618 
 2601000      830    5.5833545    768236.96    4.4289157   0.90524751    98.548081      91.0938   -5802415.2    -10815778     561547.2   -1.6297015    6.3441671 
 2602000      830     5.561884    768289.69    4.4289157   0.90525281    98.548081    91.093267   -5803462.3    -10815774     567593.5   -1.6452329    6.3241273 
 2603000      830    5.5400992    768340.99    4.4313253   0.90525815    98.548081    91.092729   -5804491.7    -10815756    573626.88   -1.6607565    6.3041348 
 2604000      830    5.5178215    768397.12    4.4361446   0.90526427    98.548081    91.092114   -5805644.1    -10815706    579679.71   -1.6762675    6.2842761 
 2605000      830    5.4922921    768454.72    4.4385542   0.90527058    98.548081    91.091479   -5806867.3    -10815613     585718.6   -1.6917672    6.2644809 
 2606000      830    5.4704905    768510.13    4.4409639   0.90527682    98.548081    91.090851   -5808060.4    -10815504     591773.2     -1.70726    6.2447192 
 2607000      830    5.4486627    768565.34    4.4409639   0.90528318    98.548081    91.090211   -5809257.7    -10815384    597818.74   -1.7227448    6.2250153 
 2608000      830    5.4263967    768619.81    4.4457831   0.90528958    98.548081    91.089567   -5810439.7    -10815263    603871.47   -1.7382221    6.2053572 
 2609000      830    5.4051136    768675.38    4.4433735   0.90529614    98.548081    91.088907   -5811638.9    -10815145    609919.49   -1.7536917    6.1857606 
 2610000      830    5.3966174    768732.57    4.4433735     0.905302    98.548081    91.088318   -5812856.8    -10815057    616235.47   -1.7691519    6.1661216 
 2611000      830    5.3668901    768788.65    4.4433735   0.90530796    98.548081    91.087717   -5814055.9    -10814961    622522.83   -1.7846044    6.1465377 
 2612000      830    5.3465353    768849.14    4.4433735   0.90531437    98.548081    91.087073   -5815313.7    -10814894    628756.18   -1.8000495    6.1270489 
 2613000      830    5.3233161    768898.19    4.4433735   0.90532012    98.548081    91.086494   -5816362.2    -10814801    635019.45   -1.8154649    6.1075233 
 2614000      830    5.3063643    768942.96    4.4409639    0.9053253    98.548081    91.085974   -5817291.5    -10814745    641362.87   -1.8308708    6.0879705 
 2615000      830    5.2830044    768991.27    4.4361446   0.90533037    98.548081    91.085463     -5818233    -10814755    647694.08   -1.8462683    6.0684474 
 2616000      830    5.2377342    769032.22    4.4361446   0.90533693    98.548081    91.084803   -5818939.1    -10814814    653733.16   -1.8616477    6.0491441 
 2617000      830    5.2446137     769069.6    4.4361446   0.90534291    98.548081    91.084201   -5819664.3    -10814788    660024.63   -1.8770182    6.0298109 
 2618000      830    5.2123721    769127.43    4.4313253   0.90535009    98.548081    91.083479   -5820858.6    -10814712    666370.14   -1.8923852    6.0106616 
 2619000      830    5.1923089    769186.14    4.4361446   0.90535732    98.548081    91.082752   -5822087.3    -10814621    672629.83   -1.9077481    5.9915613 
 2620000      830    5.1732874    769227.35    4.4361446   0.90536335    98.548081    91.082145   -5823003.4    -10814485    678881.59   -1.9231005    5.9723563 
 2621000      830    5.1501009    769264.14    4.4385542   0.90536937    98.548081    91.081539   -5823847.3    -10814326    685130.96   -1.9384411    5.9531928 
 2622000      830    5.1144842     769304.3    4.4385542   0.90537638    98.548081    91.080835   -5824728.3    -10814185     691156.4   -1.9537719    5.9341902 
 2623000      830    5.1043486    769348.66    4.4409639   0.90538388    98.548081    91.080079   -5825663.9    -10814071    697150.62   -1.9690948    5.9152885 
 2624000      830    5.0696184    769389.67    4.4433735   0.90539159    98.548081    91.079304   -5826537.9    -10813943    703026.47   -1.9844038    5.8964509 
 2625000      830    5.0444918    769426.64    4.4433735   0.90540018    98.548081    91.078439   -5827329.6    -10813793    708737.17   -1.9996971    5.8777609 
 2626000      830    5.0248803       769487    4.4433735   0.90541114    98.548081    91.077338   -5828524.8    -10813702    714370.85   -2.0149842    5.8593925 
 2627000      830    5.0044436    769546.03    4.4433735   0.90542207    98.548081    91.076238   -5829670.6    -10813632     720023.7   -2.0302643    5.8410632 
 2628000      830    4.9845161    769607.02    4.4457831   0.90543323    98.548081    91.075115   -5830841.6    -10813575    725668.36   -2.0455369    5.8228016 
 2629000      830    4.9569444    769651.86    4.4457831   0.90544317    98.548081    91.074115   -5831713.7    -10813489     731137.4   -2.0608038    5.8044329 
 2630000      830    4.9302372    769699.54    4.4457831   0.90545376    98.548081    91.073051   -5832613.3    -10813426    736393.67   -2.0760639    5.7861813 
 2631000      830    4.9134726    769745.03    4.4506024   0.90546425    98.548081    91.071995     -5833489    -10813342    741640.02   -2.0913168    5.7679594 
 2632000      830     4.891708    769788.23    4.4506024    0.9054747    98.548081    91.070945   -5834343.2    -10813230    746878.72   -2.1065627    5.7497717 
 2633000      830    4.8627599    769819.32    4.4457831   0.90548394    98.548081    91.070015   -5835008.5    -10813067    751921.28   -2.1218032    5.7314798 
 2634000      830    4.8474145    769851.73    4.4457831   0.90549381    98.548081    91.069023   -5835689.3    -10812906    756914.58   -2.1370381    5.7133032 
 2635000      830    4.8241094    769883.48    4.4506024   0.90550356    98.548081    91.068041   -5836343.1    -10812759    761877.16   -2.1522667    5.6951546 
 2636000      830    4.7960242    769920.27    4.4481928   0.90551333    98.548081    91.067059   -5836998.1    -10812720    766779.41   -2.1674778    5.6770477 
 2637000      830    4.7879413    769953.09    4.4481928   0.90552171    98.548081    91.066216   -5837660.4    -10812613    771795.11   -2.1826693    5.6588124 
[...]
 3385000      830   0.28760933    828834.63     4.373494   0.90624524    98.548081     90.99351     -7105214    -10804076    2927260.4   -12.252606   -1.5778243 
 3386000      830    0.2890971     828893.7     4.373494   0.90623422    98.548081    90.994618   -7106729.5    -10804055    2927413.7    -12.26532   -1.5833259 
 3387000      830   0.29573722    828946.33    4.3710843   0.90622292    98.548081    90.995752     -7108062    -10804083    2927908.1   -12.278027    -1.588854 
 3388000      830   0.29183137    829016.71    4.3686747   0.90621259    98.548081    90.996789   -7109589.7    -10804280    2928367.3   -12.290733   -1.5942492 
 3389000      830   0.28415694    829094.86    4.3710843   0.90620104    98.548081    90.997949   -7111382.4    -10804405    2929021.9   -12.303435    -1.599798 
 3390000      830   0.28539195    829166.19    4.3686747     0.906191    98.548081    90.998957   -7113045.9    -10804481    2929601.7   -12.316133   -1.6051414 
 3391000      830   0.28218883    829240.92    4.3662651    0.9061818    98.548081    90.999881   -7114794.9    -10804529    2930035.9   -12.328833   -1.6103691 
 3392000      830   0.28052818    829315.18    4.3662651   0.90617247    98.548081    91.000817   -7116539.9    -10804573      2930237   -12.341535   -1.6156054 
 3393000      830    0.2736774     829401.4    4.3710843   0.90616403    98.548081    91.001665   -7118514.4    -10804628    2930685.5   -12.354237   -1.6207187 
 3394000      830   0.28156674    829498.14    4.3686747   0.90615654    98.548081    91.002418   -7120614.1    -10804767    2931582.9   -12.366935   -1.6256965 
 3395000      830   0.27289935    829602.46    4.3662651   0.90614905    98.548081     91.00317   -7122759.8    -10805024    2932449.6   -12.379636   -1.6306642 
 3396000      830   0.27048085    829705.73    4.3662651   0.90614177    98.548081    91.003901     -7124882    -10805278    2933186.6   -12.392339   -1.6355961 
 3397000      830    0.2724565    829805.04    4.3638554    0.9061346    98.548081    91.004622   -7126954.7    -10805493    2933996.8   -12.405039   -1.6405073 
 3398000      830   0.26952536    829898.35    4.3638554   0.90612711    98.548081    91.005374   -7128994.5    -10805618    2934759.3   -12.417739   -1.6454503 
 3399000      830   0.27360073     829984.8    4.3638554   0.90611975    98.548081    91.006112   -7130982.1    -10805644    2935528.5    -12.43044   -1.6503672 
 3400000      830   0.27241522    830070.13    4.3662651   0.90611298    98.548081    91.006793   -7133009.1    -10805596    2936337.2   -12.443138   -1.6552037 
 3401000      830   0.27190782    830151.46    4.3662651   0.90610609    98.548081    91.007484   -7134993.4    -10805505    2937138.5   -12.455837   -1.6600455 
 3402000      830    0.2757728    830234.87    4.3662651   0.90609946    98.548081    91.008151   -7136977.5    -10805455    2937934.4   -12.468532   -1.6648461 
 3403000      830   0.27538751    830321.94    4.3662651   0.90609351    98.548081    91.008748   -7138980.5    -10805451    2938888.5   -12.481215   -1.6695486 
 3404000      830   0.27265122    830416.36    4.3686747   0.90608808    98.548081    91.009293   -7141091.3    -10805489    2939984.1   -12.493897    -1.674176 
 3405000      830   0.27685139    830519.49    4.3686747   0.90608378    98.548081    91.009725   -7143284.6    -10805609    2941192.9   -12.506576   -1.6786505 
 3406000      830   0.27417143    830626.44    4.3710843    0.9060801    98.548081    91.010095   -7145491.1    -10805787    2942383.6   -12.519254   -1.6830371 
 3407000      830   0.27161084    830736.91    4.3710843   0.90607669    98.548081    91.010437   -7147741.8    -10805991    2943591.9   -12.531933   -1.6873793 
 3408000      830   0.27284053    830845.58    4.3710843   0.90607322    98.548081    91.010786   -7149986.1    -10806165    2944736.3   -12.544612   -1.6917223 
 3409000      830   0.26929583    830952.15    4.3686747   0.90606977    98.548081    91.011133   -7152226.8    -10806295    2945783.3   -12.557292   -1.6960565 
 3410000      830   0.26979404    831052.03    4.3686747   0.90606591    98.548081     91.01152   -7154419.9    -10806337    2946833.5   -12.569972   -1.7004343 
 3411000      830   0.27049726    831143.84    4.3710843   0.90606167    98.548081    91.011946   -7156538.2    -10806287    2947827.5   -12.582652    -1.704852 
 3412000      830   0.27276133    831229.99     4.373494   0.90605594    98.548081    91.012522   -7158651.2    -10806150    2948915.3   -12.595332   -1.7094542 
 3413000      830   0.27088899    831322.38    4.3710843   0.90605044    98.548081    91.013074   -7160859.9    -10806047    2949987.2   -12.608012   -1.7140176 
 3414000      830   0.26750446    831418.72    4.3710843   0.90604537    98.548081    91.013583   -7163116.7    -10805973    2951080.3   -12.620693   -1.7185186 
 3415000      830   0.26879899    831524.04    4.3686747   0.90604113    98.548081     91.01401   -7165456.6    -10805993    2952165.2   -12.633373   -1.7229057 
 3416000      830   0.26766693    831639.69    4.3710843   0.90603771    98.548081    91.014353   -7167897.8    -10806119    2953310.5   -12.646054   -1.7271771 
 3417000      830   0.28028298    831753.51    4.3710843   0.90603381    98.548081    91.014745   -7170302.8    -10806252    2955209.5   -12.658723   -1.7315109 
 3418000      830   0.27504125    831881.17    4.3686747   0.90603139    98.548081    91.014988   -7172859.1    -10806502    2956834.3   -12.671389   -1.7356502 
 3419000      830   0.26597759    832007.49    4.3710843   0.90602889    98.548081    91.015239     -7175384    -10806758    2958559.7   -12.684057     -1.73979 
 3420000      830   0.27268724    832123.43    4.3710843   0.90602551    98.548081    91.015578   -7177796.7    -10806918    2960228.8   -12.696724   -1.7440348 
 3421000      830   0.26339639    832233.35     4.373494   0.90602082    98.548081     91.01605     -7180222    -10806961    2961719.2   -12.709392   -1.7484426 
 3422000      830   0.26012673    832335.92     4.373494   0.90601535    98.548081    91.016599   -7182587.4    -10806921    2963215.1   -12.722062   -1.7529399 
 3423000      830   0.26301665    832428.35     4.373494   0.90600906    98.548081    91.017231     -7184845    -10806786      2964679   -12.734731   -1.7575351 
 3424000      830   0.26082046    832518.57     4.373494   0.90600251    98.548081    91.017889   -7187045.7    -10806666      2966292   -12.747395   -1.7621558 
 3425000      830   0.26858776    832618.53    4.3710843   0.90599656    98.548081    91.018487   -7189404.9    -10806585    2967948.9   -12.760055   -1.7666938 
 3426000      830   0.26108128       832729    4.3710843   0.90599151    98.548081    91.018994   -7191881.1    -10806597    2969587.7   -12.772714   -1.7711091 
 3427000      830   0.26140818    832845.37    4.3710843   0.90598695    98.548081    91.019452   -7194392.4    -10806691    2971302.5   -12.785374   -1.7754534 
 3428000      830   0.26366371    832968.24    4.3710843   0.90598301    98.548081    91.019848   -7196930.3    -10806887    2972953.8   -12.798034   -1.7797097 
 3429000      830   0.25967064    833092.86    4.3710843   0.90597946    98.548081    91.020205   -7199493.4    -10807089    2974590.3   -12.810694   -1.7839099 
 3430000      830   0.26013725    833216.62    4.3686747   0.90597588    98.548081    91.020564   -7202045.5    -10807282      2976257   -12.823355   -1.7881041 
 3431000      830   0.25934266    833337.26    4.3686747   0.90597207    98.548081    91.020947     -7204582    -10807429    2977863.8   -12.836015   -1.7923213 
 3432000      830   0.25750529    833440.84    4.3662651   0.90596782    98.548081    91.021374   -7206868.5    -10807466    2979346.6   -12.848675   -1.7965868 
 3433000      830   0.25203231    833537.96    4.3662651   0.90596326    98.548081    91.021833   -7209088.2    -10807437    2980822.8   -12.861337   -1.8008865 
 3434000      830    0.2547759    833630.88    4.3686747   0.90595838    98.548081    91.022323   -7211243.5    -10807387    2982268.7   -12.873999   -1.8052195 
 3435000      830   0.25417918    833721.75    4.3662651   0.90595371    98.548081    91.022792   -7213380.9    -10807306      2983718    -12.88666   -1.8095172 
 3436000      830   0.25160057     833816.1    4.3662651   0.90594897    98.548081    91.023268     -7215554    -10807267    2985179.5   -12.899321   -1.8138148 
 3437000      830   0.25570716    833916.26    4.3686747   0.90594435    98.548081    91.023732   -7217777.4    -10807300    2986717.4   -12.911982   -1.8180891 
 3438000      830   0.24882009    834015.47    4.3759036   0.90593972    98.548081    91.024197   -7219946.9    -10807367    2988201.3   -12.924642   -1.8223549 
 3439000      830   0.24125151    834088.56     4.373494   0.90593426    98.548081    91.024746   -7221526.9    -10807476      2989063   -12.937301   -1.8267208 
 3440000      830   0.23947403    834172.71    4.3710843   0.90592905    98.548081     91.02527   -7223275.7    -10807650    2989997.8   -12.949961   -1.8310472 
 3441000      830   0.23848781    834250.09     4.373494   0.90592269    98.548081    91.025908   -7224899.2    -10807825    2990800.6   -12.962622    -1.835515 
 3442000      830   0.23604945    834315.38    4.3759036   0.90591641    98.548081    91.026539   -7226247.2    -10808014    2991585.9   -12.975285   -1.8399622 
 3443000      830    0.2392045    834383.43    4.3759036   0.90591097    98.548081    91.027086   -7227697.7    -10808142    2992190.1   -12.987946   -1.8442937 
 3444000      830   0.23971842     834467.1    4.3783133   0.90590464    98.548081    91.027723   -7229615.6    -10808159      2993158   -13.000605    -1.848735 
 3445000      830   0.25140611     834551.1    4.3759036   0.90589841    98.548081    91.028348   -7231562.9    -10808152    2994098.7   -13.013261   -1.8531502 
 3446000      830   0.24798117    834632.23    4.3783133   0.90589275    98.548081    91.028917     -7233469    -10808112    2994951.3   -13.025916   -1.8574825 
 3447000      830   0.24304086    834715.93    4.3807229   0.90588754    98.548081    91.029441   -7235440.1    -10808054    2995766.9   -13.038572   -1.8617518 
 3448000      830   0.24275544     834802.2    4.3831325   0.90588237    98.548081     91.02996     -7237426    -10808036    2996669.9   -13.051229   -1.8660086 
 3449000      830   0.24904463    834890.44    4.3807229   0.90587768    98.548081    91.030431   -7239392.5    -10808070    2997536.1   -13.063885   -1.8701945 
 3450000      830   0.24600365    834997.35    4.3831325   0.90587462    98.548081    91.030739   -7241684.9    -10808150    2998483.3   -13.076541   -1.8741659 
 3451000      830   0.24704664    835091.91    4.3807229   0.90587252    98.548081     91.03095   -7243646.9    -10808274    2998745.5   -13.089197   -1.8780073 
 3452000      830   0.25939627     835186.6    4.3807229   0.90587108    98.548081    91.031095   -7245637.1    -10808359    2998680.7   -13.101856   -1.8817543 
 3453000      830   0.27757379    835286.55    4.3855422   0.90587137    98.548081    91.031065     -7247709    -10808442    2998064.6   -13.114514   -1.8852731 
 3454000      830   0.27912546    835390.85    4.3855422   0.90587363    98.548081    91.030838   -7249865.5    -10808495    2997279.7   -13.127173   -1.8885286 
 3455000      830    0.2697349    835504.46    4.3855422   0.90587646    98.548081    91.030554   -7252204.4    -10808555      2996504   -13.139831   -1.8917049 
 3456000      830   0.24563432    835601.03    4.3855422   0.90587699    98.548081    91.030501   -7254302.8    -10808534    2996174.9   -13.152489   -1.8951727 
 3457000      830   0.23445491    835704.08    4.3879518   0.90587668    98.548081    91.030531   -7256601.2    -10808469    2996070.2   -13.165149   -1.8987408 
 3458000      830   0.25707761    835803.25    4.3879518   0.90587589    98.548081    91.030611   -7258874.3    -10808356    2995833.4   -13.177807   -1.9023642 
 3459000      830   0.29876496    835892.99    4.3879518   0.90587705    98.548081    91.030495     -7260938    -10808209    2994674.2   -13.190464   -1.9057285 
 3460000      830    0.2869448    835986.82    4.3879518   0.90587972    98.548081    91.030226   -7263056.7    -10808065    2993148.9   -13.203123    -1.908889 
 3461000      830   0.26505898    836080.58    4.3879518   0.90588195    98.548081    91.030002   -7265171.2    -10807933    2992015.7    -13.21578   -1.9121003 
 3462000      830   0.38235294    836201.53    4.3879518   0.90589166    98.548081    91.029027   -7267642.4    -10807882    2989903.9   -13.228433   -1.9143399 
 3463000      830   0.42693744    836385.19    4.3903614   0.90590692    98.548081    91.027493   -7271220.2    -10807970    2986696.3   -13.241083   -1.9158541 
 3464000      830   0.27286679    836565.23    4.3879518   0.90591456    98.548081    91.026725   -7274891.1    -10808038    2985846.3   -13.253731   -1.9183425 
 3465000      830   0.22050188    836703.04    4.3879518   0.90591614    98.548081    91.026567   -7277852.8    -10808024    2986257.2   -13.266387   -1.9216112 
 3466000      830   0.23307674    836828.91    4.3903614   0.90591593    98.548081    91.026588   -7280708.1    -10807894    2986949.1   -13.279043   -1.9250983 
 3467000      830   0.26990752    837001.82    4.3903614   0.90592241    98.548081    91.025937     -7284481    -10807729      2987311   -13.291687   -1.9277158 
 3468000      830    0.3856223    837238.07    4.3855422   0.90593891    98.548081    91.024279   -7289419.1    -10807568    2986112.2   -13.304319    -1.929033 
 3469000      830   0.37859939    837485.72    4.3879518   0.90595554    98.548081    91.022608   -7294591.3    -10807416    2984111.8   -13.316946   -1.9303245 
 3470000      830   0.23890279    837660.69    4.3831325   0.90596008    98.548081    91.022151   -7298465.8    -10807233    2984064.3   -13.329587    -1.933168 
 3471000      830   0.21300085    837778.89    4.3855422   0.90595656    98.548081    91.022505   -7301114.6    -10807210    2985698.6   -13.342242   -1.9370483 
 3472000      830   0.22569975    837889.15    4.3831325   0.90595392    98.548081    91.022771   -7303649.5    -10807111    2987066.4   -13.354899   -1.9408072 
 3473000      830   0.25279154    838040.95    4.3807229   0.90595722    98.548081    91.022439   -7306818.9    -10807156    2987391.8   -13.367544     -1.94379 
 3474000      830   0.23257247    838203.95    4.3783133   0.90596165    98.548081    91.021994   -7310127.9    -10807282    2987759.3    -13.38019   -1.9466221 
 3475000      830   0.21786532    838340.42    4.3807229   0.90596363    98.548081    91.021795   -7313060.2    -10807260    2988535.8   -13.392839   -1.9497628 
 3476000      830   0.23028418    838436.85    4.3807229   0.90595844    98.548081    91.022316   -7315286.6    -10807221    2989758.1   -13.405496   -1.9538203 
 3477000      830   0.22043596    838538.96    4.3807229   0.90595335    98.548081    91.022828     -7317403    -10807414    2991441.1   -13.418153   -1.9578608 
 3478000      830    0.2167428    838644.38    4.3807229   0.90594874    98.548081    91.023291   -7319529.1    -10807659    2993088.1   -13.430812   -1.9618318 
 3479000      830   0.22577157    838751.28    4.3783133    0.9059445    98.548081    91.023717     -7321738    -10807846    2994445.1   -13.443469   -1.9657479 
 3480000      830   0.21844097    838848.51    4.3759036    0.9059399    98.548081    91.024179   -7323810.8    -10807966    2995935.7   -13.456127   -1.9697025 
 3481000      830    0.2191565    838940.36    4.3759036   0.90593519    98.548081    91.024652     -7325954    -10807903    2997287.1   -13.468785   -1.9736659 
 3482000      830   0.22162621    839030.39     4.373494   0.90593002    98.548081    91.025172   -7328071.1    -10807835    2998623.7   -13.481442   -1.9776821 
 3483000      830   0.22917439    839124.39    4.3783133    0.9059237    98.548081    91.025807   -7330409.6    -10807655    3000128.6   -13.494098   -1.9818409 
 3484000      830   0.23112177    839221.49    4.3807229   0.90591741    98.548081    91.026439   -7332779.7    -10807510    3001867.4   -13.506754   -1.9859919 
 3485000      830   0.23003198     839314.5    4.3807229   0.90591234    98.548081    91.026949   -7335075.7    -10807326    3003592.7   -13.519409    -1.989977 
 3486000      830   0.23295355    839419.02    4.3807229    0.9059083    98.548081    91.027355   -7337489.6    -10807252    3005269.9   -13.532063   -1.9938225 
 3487000      830   0.22950011    839548.08    4.3807229    0.9059063    98.548081    91.027555   -7340244.9    -10807326      3006798   -13.544721   -1.9973934 
 3488000      830   0.23368336    839690.28    4.3783133    0.9059052    98.548081    91.027666   -7343090.7    -10807577    3008271.7   -13.557379   -2.0008414 
 3489000      830   0.23152235    839841.72    4.3807229   0.90590468    98.548081    91.027719   -7346002.4    -10807949    3009704.7   -13.570037   -2.0042087 
 3490000      830   0.23032047    839996.46    4.3807229   0.90590463    98.548081    91.027723   -7348937.8    -10808359    3011210.2   -13.582695   -2.0075071 
 3491000      830   0.23231885    840145.38    4.3807229    0.9059043    98.548081    91.027756   -7351853.2    -10808669    3012735.1   -13.595353   -2.0108344 
 3492000      830   0.23102982    840278.99    4.3783133   0.90590391    98.548081    91.027795   -7354506.9    -10808912    3014229.3   -13.608005   -2.0141636 
 3493000      830   0.23822145    840362.08    4.3807229   0.90590022    98.548081    91.028166   -7356318.8    -10808970    3015883.8   -13.620653   -2.0179108 
 3494000      830   0.24002044    840427.05    4.3807229   0.90589558    98.548081    91.028633   -7358013.4    -10808773    3017416.6   -13.633301   -2.0217735 
 3495000      830   0.23378523    840475.56    4.3807229    0.9058899    98.548081    91.029203     -7359587    -10808362    3018979.9    -13.64595   -2.0257641 
 3496000      830    0.2346799    840515.67    4.3807229   0.90588378    98.548081    91.029818   -7361119.6    -10807819    3020465.4   -13.658601   -2.0298045 
 3497000      830   0.23740702    840555.34    4.3807229   0.90587755    98.548081    91.030444   -7362565.2    -10807356    3022011.4    -13.67125   -2.0338522 
 3498000      830   0.23930287    840601.86    4.3831325   0.90587163    98.548081    91.031039   -7364081.7    -10806963    3023594.6     -13.6839   -2.0378529 
 3499000      830   0.24693977    840672.09    4.3807229   0.90586731    98.548081    91.031473     -7365717    -10806933      3025046   -13.696549   -2.0416398 
 3500000      830   0.24210701     840771.9    4.3783133   0.90586524    98.548081    91.031681   -7367602.1    -10807247      3026579   -13.709198   -2.0451302 
Loop time of 227.891 on 1 procs for 1000000 steps with 830 atoms

Performance: 3791.290 tau/day, 4388.067 timesteps/s
99.7% CPU use with 1 MPI tasks x no OpenMP threads

MPI task timing breakdown:
Section |  min time  |  avg time  |  max time  |%varavg| %total
---------------------------------------------------------------
Pair    | 135.96     | 135.96     | 135.96     |   0.0 | 59.66
Neigh   | 0.082921   | 0.082921   | 0.082921   |   0.0 |  0.04
Comm    | 2.6793     | 2.6793     | 2.6793     |   0.0 |  1.18
Output  | 0.43962    | 0.43962    | 0.43962    |   0.0 |  0.19
Modify  | 85.239     | 85.239     | 85.239     |   0.0 | 37.40
Other   |            | 3.493      |            |       |  1.53

Nlocal:        830.000 ave         830 max         830 min
Histogram: 1 0 0 0 0 0 0 0 0 0
Nghost:        147.000 ave         147 max         147 min
Histogram: 1 0 0 0 0 0 0 0 0 0
Neighs:        2104.00 ave        2104 max        2104 min
Histogram: 1 0 0 0 0 0 0 0 0 0

Total # of neighbors = 2104
Ave neighs/atom = 2.5349398
Neighbor list builds = 452
Dangerous builds = 0

#fin du programme

#fin du programme
Total wall time: 0:08:43
